   2   2   1   0
  0.2376593E+02  0.4065993E-09  0.4065993E-09  0.4065993E-09  0.5000000E-15
   1.0000000000000000E-004
  CAR 
 unknown system                          
     16.56564227    -15.93389652  301      3.78418303      1.00000000
    -15.934  0.0000E+00  0.0000E+00
    -15.826  0.0000E+00  0.0000E+00
    -15.717  0.0000E+00  0.0000E+00
    -15.609  0.0000E+00  0.0000E+00
    -15.501  0.0000E+00  0.0000E+00
    -15.392  0.0000E+00  0.0000E+00
    -15.284  0.0000E+00  0.0000E+00
    -15.176  0.0000E+00  0.0000E+00
    -15.067  0.0000E+00  0.0000E+00
    -14.959  0.7882E-13  0.8538E-14
    -14.851  0.2220E-08  0.2405E-09
    -14.742  0.6619E-05  0.7173E-06
    -14.634  0.2226E-02  0.2419E-03
    -14.526  0.9953E-01  0.1102E-01
    -14.417  0.8575E+00  0.1039E+00
    -14.309  0.2100E+01  0.3314E+00
    -14.201  0.1374E+01  0.4803E+00
    -14.092  0.1782E+00  0.4996E+00
    -13.984  0.3481E-02  0.5000E+00
    -13.876  0.8367E-05  0.5000E+00
    -13.767  0.2206E-08  0.5000E+00
    -13.659  0.6028E-13  0.5000E+00
    -13.551  0.0000E+00  0.5000E+00
    -13.442  0.0000E+00  0.5000E+00
    -13.334  0.0000E+00  0.5000E+00
    -13.226  0.0000E+00  0.5000E+00
    -13.117  0.0000E+00  0.5000E+00
    -13.009  0.0000E+00  0.5000E+00
    -12.901  0.0000E+00  0.5000E+00
    -12.792  0.0000E+00  0.5000E+00
    -12.684  0.0000E+00  0.5000E+00
    -12.576  0.0000E+00  0.5000E+00
    -12.467  0.0000E+00  0.5000E+00
    -12.359  0.0000E+00  0.5000E+00
    -12.251  0.0000E+00  0.5000E+00
    -12.142  0.0000E+00  0.5000E+00
    -12.034  0.0000E+00  0.5000E+00
    -11.926  0.0000E+00  0.5000E+00
    -11.817  0.0000E+00  0.5000E+00
    -11.709  0.0000E+00  0.5000E+00
    -11.601  0.0000E+00  0.5000E+00
    -11.492  0.0000E+00  0.5000E+00
    -11.384  0.0000E+00  0.5000E+00
    -11.276  0.3463E-16  0.5000E+00
    -11.167  0.1438E-11  0.5000E+00
    -11.059  0.6057E-08  0.5000E+00
    -10.951  0.2676E-05  0.5000E+00
    -10.842  0.1330E-03  0.5000E+00
    -10.734  0.8864E-03  0.5001E+00
    -10.626  0.2669E-02  0.5004E+00
    -10.517  0.1055E-01  0.5015E+00
    -10.409  0.1071E-01  0.5027E+00
    -10.301  0.5177E-02  0.5033E+00
    -10.192  0.1239E-01  0.5046E+00
    -10.084  0.1843E-01  0.5066E+00
     -9.976  0.3138E-01  0.5100E+00
     -9.867  0.1338E-01  0.5115E+00
     -9.759  0.4658E-02  0.5120E+00
     -9.651  0.1510E-01  0.5136E+00
     -9.542  0.3968E-01  0.5179E+00
     -9.434  0.3626E-01  0.5218E+00
     -9.326  0.2781E-01  0.5248E+00
     -9.217  0.2914E-01  0.5280E+00
     -9.109  0.2889E-01  0.5311E+00
     -9.001  0.2316E-01  0.5336E+00
     -8.892  0.4495E-01  0.5385E+00
     -8.784  0.8552E-01  0.5478E+00
     -8.676  0.6043E-01  0.5543E+00
     -8.567  0.3765E-01  0.5584E+00
     -8.459  0.6724E-01  0.5657E+00
     -8.351  0.6929E-01  0.5732E+00
     -8.242  0.4836E-01  0.5784E+00
     -8.134  0.6876E-01  0.5859E+00
     -8.026  0.7640E-01  0.5941E+00
     -7.917  0.4077E-01  0.5986E+00
     -7.809  0.1237E-01  0.5999E+00
     -7.701  0.9341E-03  0.6000E+00
     -7.592  0.1048E-04  0.6000E+00
     -7.484  0.1443E-07  0.6000E+00
     -7.376  0.2210E-11  0.6000E+00
     -7.267  0.3603E-16  0.6000E+00
     -7.159  0.0000E+00  0.6000E+00
     -7.051  0.0000E+00  0.6000E+00
     -6.942  0.0000E+00  0.6000E+00
     -6.834  0.0000E+00  0.6000E+00
     -6.726  0.0000E+00  0.6000E+00
     -6.617  0.0000E+00  0.6000E+00
     -6.509  0.0000E+00  0.6000E+00
     -6.401  0.0000E+00  0.6000E+00
     -6.292  0.0000E+00  0.6000E+00
     -6.184  0.0000E+00  0.6000E+00
     -6.076  0.0000E+00  0.6000E+00
     -5.967  0.0000E+00  0.6000E+00
     -5.859  0.0000E+00  0.6000E+00
     -5.751  0.0000E+00  0.6000E+00
     -5.642  0.0000E+00  0.6000E+00
     -5.534  0.0000E+00  0.6000E+00
     -5.426  0.0000E+00  0.6000E+00
     -5.317  0.0000E+00  0.6000E+00
     -5.209  0.0000E+00  0.6000E+00
     -5.101  0.0000E+00  0.6000E+00
     -4.992  0.0000E+00  0.6000E+00
     -4.884  0.0000E+00  0.6000E+00
     -4.776  0.0000E+00  0.6000E+00
     -4.667  0.0000E+00  0.6000E+00
     -4.559  0.4640E-14  0.6000E+00
     -4.451  0.8973E-10  0.6000E+00
     -4.342  0.1777E-06  0.6000E+00
     -4.234  0.3821E-04  0.6000E+00
     -4.126  0.1081E-02  0.6001E+00
     -4.017  0.7148E-02  0.6009E+00
     -3.909  0.2151E-01  0.6032E+00
     -3.801  0.5506E-01  0.6092E+00
     -3.692  0.1239E+00  0.6226E+00
     -3.584  0.1016E+00  0.6336E+00
     -3.476  0.7066E-01  0.6413E+00
     -3.367  0.5798E-01  0.6476E+00
     -3.259  0.2266E-01  0.6500E+00
     -3.151  0.2767E-01  0.6530E+00
     -3.042  0.5131E-01  0.6586E+00
     -2.934  0.5805E-01  0.6649E+00
     -2.826  0.1420E-01  0.6664E+00
     -2.717  0.1091E-01  0.6676E+00
     -2.609  0.8852E-02  0.6685E+00
     -2.501  0.1180E-01  0.6698E+00
     -2.392  0.2796E-01  0.6728E+00
     -2.284  0.2898E-01  0.6760E+00
     -2.176  0.1634E-01  0.6777E+00
     -2.067  0.1690E-02  0.6779E+00
     -1.959  0.1539E-02  0.6781E+00
     -1.851  0.1549E-01  0.6798E+00
     -1.742  0.2482E-01  0.6825E+00
     -1.634  0.2407E-01  0.6851E+00
     -1.526  0.1824E-01  0.6870E+00
     -1.417  0.2348E-02  0.6873E+00
     -1.309  0.3906E-04  0.6873E+00
     -1.201  0.1835E-03  0.6873E+00
     -1.092  0.3526E-02  0.6877E+00
     -0.984  0.1144E-01  0.6889E+00
     -0.876  0.1492E-01  0.6906E+00
     -0.767  0.3127E-01  0.6939E+00
     -0.659  0.4569E-01  0.6989E+00
     -0.551  0.7805E-01  0.7074E+00
     -0.442  0.6239E-01  0.7141E+00
     -0.334  0.2734E-01  0.7171E+00
     -0.226  0.2160E-01  0.7194E+00
     -0.117  0.4605E-01  0.7244E+00
     -0.009  0.8452E-01  0.7336E+00
      0.099  0.1133E+00  0.7458E+00
      0.208  0.7969E-01  0.7545E+00
      0.316  0.1129E-01  0.7557E+00
      0.424  0.1218E-01  0.7570E+00
      0.533  0.5199E-01  0.7626E+00
      0.641  0.5946E-01  0.7691E+00
      0.749  0.7711E-01  0.7774E+00
      0.858  0.9684E-01  0.7879E+00
      0.966  0.8327E-01  0.7969E+00
      1.074  0.5299E-01  0.8027E+00
      1.183  0.8206E-01  0.8116E+00
      1.291  0.7223E-01  0.8194E+00
      1.399  0.4176E-01  0.8239E+00
      1.508  0.8834E-01  0.8335E+00
      1.616  0.9756E-01  0.8441E+00
      1.724  0.2682E-01  0.8470E+00
      1.833  0.4237E-01  0.8516E+00
      1.941  0.5284E-01  0.8573E+00
      2.049  0.6041E-01  0.8638E+00
      2.158  0.8875E-01  0.8734E+00
      2.266  0.6957E-01  0.8810E+00
      2.374  0.2288E-01  0.8835E+00
      2.483  0.4791E-02  0.8840E+00
      2.591  0.2203E-01  0.8864E+00
      2.699  0.4747E-01  0.8915E+00
      2.808  0.2078E-01  0.8938E+00
      2.916  0.1912E-02  0.8940E+00
      3.024  0.5746E-02  0.8946E+00
      3.132  0.2422E-01  0.8972E+00
      3.241  0.1816E-01  0.8992E+00
      3.349  0.3828E-02  0.8996E+00
      3.457  0.2949E-02  0.8999E+00
      3.566  0.7655E-03  0.9000E+00
      3.674  0.2630E-04  0.9000E+00
      3.782  0.1042E-06  0.9000E+00
      3.891  0.4387E-10  0.9000E+00
      3.999  0.1883E-14  0.9000E+00
      4.107  0.0000E+00  0.9000E+00
      4.216  0.0000E+00  0.9000E+00
      4.324  0.1001E-18  0.9000E+00
      4.432  0.1196E-13  0.9000E+00
      4.541  0.1498E-09  0.9000E+00
      4.649  0.1930E-06  0.9000E+00
      4.757  0.2688E-04  0.9000E+00
      4.866  0.4451E-03  0.9001E+00
      4.974  0.9964E-03  0.9002E+00
      5.082  0.3513E-03  0.9002E+00
      5.191  0.9801E-03  0.9003E+00
      5.299  0.4812E-02  0.9008E+00
      5.407  0.8797E-02  0.9018E+00
      5.516  0.8413E-02  0.9027E+00
      5.624  0.9659E-02  0.9037E+00
      5.732  0.1156E-01  0.9050E+00
      5.841  0.2819E-01  0.9080E+00
      5.949  0.3394E-01  0.9117E+00
      6.057  0.1107E-01  0.9129E+00
      6.166  0.1613E-01  0.9147E+00
      6.274  0.3573E-01  0.9185E+00
      6.382  0.7868E-01  0.9271E+00
      6.491  0.7949E-01  0.9357E+00
      6.599  0.6148E-01  0.9423E+00
      6.707  0.8239E-01  0.9513E+00
      6.816  0.7463E-01  0.9593E+00
      6.924  0.7412E-01  0.9674E+00
      7.032  0.4148E-01  0.9719E+00
      7.141  0.2693E-01  0.9748E+00
      7.249  0.4462E-01  0.9796E+00
      7.357  0.9181E-01  0.9896E+00
      7.466  0.1122E+00  0.1002E+01
      7.574  0.7112E-01  0.1009E+01
      7.682  0.6383E-01  0.1016E+01
      7.791  0.5245E-01  0.1022E+01
      7.899  0.3858E-01  0.1026E+01
      8.007  0.2162E-01  0.1029E+01
      8.116  0.5580E-02  0.1029E+01
      8.224  0.1980E-02  0.1029E+01
      8.332  0.1143E-01  0.1031E+01
      8.441  0.5625E-01  0.1037E+01
      8.549  0.1125E+00  0.1049E+01
      8.657  0.8879E-01  0.1058E+01
      8.766  0.3281E-01  0.1062E+01
      8.874  0.2636E-01  0.1065E+01
      8.982  0.5744E-01  0.1071E+01
      9.091  0.1240E+00  0.1085E+01
      9.199  0.1442E+00  0.1100E+01
      9.307  0.4376E-01  0.1105E+01
      9.416  0.1362E-01  0.1106E+01
      9.524  0.2669E-01  0.1109E+01
      9.632  0.3980E-01  0.1114E+01
      9.741  0.7087E-01  0.1121E+01
      9.849  0.7796E-01  0.1130E+01
      9.957  0.1600E+00  0.1147E+01
     10.066  0.1157E+00  0.1160E+01
     10.174  0.4000E-01  0.1164E+01
     10.282  0.4105E-01  0.1168E+01
     10.391  0.6385E-01  0.1175E+01
     10.499  0.3813E-01  0.1179E+01
     10.607  0.5325E-01  0.1185E+01
     10.716  0.7296E-01  0.1193E+01
     10.824  0.6429E-01  0.1200E+01
     10.932  0.8763E-01  0.1210E+01
     11.041  0.5817E-01  0.1216E+01
     11.149  0.1812E-01  0.1218E+01
     11.257  0.1118E-01  0.1219E+01
     11.366  0.1864E-01  0.1221E+01
     11.474  0.6286E-01  0.1228E+01
     11.582  0.4344E-01  0.1233E+01
     11.691  0.1052E-01  0.1234E+01
     11.799  0.2506E-01  0.1236E+01
     11.907  0.3473E-01  0.1240E+01
     12.016  0.2029E-01  0.1242E+01
     12.124  0.1051E-01  0.1244E+01
     12.232  0.4174E-01  0.1248E+01
     12.341  0.9611E-01  0.1258E+01
     12.449  0.7609E-01  0.1267E+01
     12.557  0.5146E-01  0.1272E+01
     12.666  0.2467E-01  0.1275E+01
     12.774  0.2501E-01  0.1278E+01
     12.882  0.1946E-01  0.1280E+01
     12.991  0.1125E-01  0.1281E+01
     13.099  0.1534E-01  0.1283E+01
     13.207  0.2404E-01  0.1285E+01
     13.316  0.2141E-01  0.1288E+01
     13.424  0.2956E-01  0.1291E+01
     13.532  0.2611E-01  0.1294E+01
     13.641  0.1092E-01  0.1295E+01
     13.749  0.2328E-01  0.1297E+01
     13.857  0.1312E-01  0.1299E+01
     13.966  0.1022E-02  0.1299E+01
     14.074  0.9608E-05  0.1299E+01
     14.182  0.9854E-08  0.1299E+01
     14.291  0.1044E-11  0.1299E+01
     14.399  0.9608E-17  0.1299E+01
     14.507  0.1201E-17  0.1299E+01
     14.616  0.1248E-12  0.1299E+01
     14.724  0.1386E-08  0.1299E+01
     14.832  0.1586E-05  0.1299E+01
     14.941  0.1970E-03  0.1299E+01
     15.049  0.2925E-02  0.1299E+01
     15.157  0.5911E-02  0.1300E+01
     15.266  0.1716E-02  0.1300E+01
     15.374  0.6554E-04  0.1300E+01
     15.482  0.2900E-06  0.1300E+01
     15.591  0.1368E-09  0.1300E+01
     15.699  0.6590E-14  0.1300E+01
     15.807  0.0000E+00  0.1300E+01
     15.916  0.0000E+00  0.1300E+01
     16.024  0.0000E+00  0.1300E+01
     16.132  0.0000E+00  0.1300E+01
     16.241  0.0000E+00  0.1300E+01
     16.349  0.0000E+00  0.1300E+01
     16.457  0.0000E+00  0.1300E+01
     16.566  0.0000E+00  0.1300E+01
     16.56564227    -15.93389652  301      3.78418303      1.00000000
    -15.934  0.0000E+00  0.0000E+00  0.0000E+00
    -15.826  0.0000E+00  0.0000E+00  0.0000E+00
    -15.717  0.0000E+00  0.0000E+00  0.0000E+00
    -15.609  0.0000E+00  0.0000E+00  0.0000E+00
    -15.501  0.0000E+00  0.0000E+00  0.0000E+00
    -15.392  0.0000E+00  0.0000E+00  0.0000E+00
    -15.284  0.0000E+00  0.0000E+00  0.0000E+00
    -15.176  0.0000E+00  0.0000E+00  0.0000E+00
    -15.067  0.0000E+00  0.0000E+00  0.0000E+00
    -14.959  0.1549E-15  0.7296E-15  0.1527E-11
    -14.851  0.5108E-11  0.2025E-10  0.4302E-07
    -14.742  0.1771E-07  0.5889E-07  0.1283E-03
    -14.634  0.6719E-05  0.1876E-04  0.4321E-01
    -14.526  0.3013E-03  0.7157E-03  0.1937E+01
    -14.417  0.1822E-02  0.3855E-02  0.1680E+02
    -14.309  0.1776E-02  0.3723E-02  0.4143E+02
    -14.201  0.3696E-03  0.8180E-03  0.2719E+02
    -14.092  0.2417E-04  0.4132E-04  0.3530E+01
    -13.984  0.3613E-06  0.3637E-06  0.6898E-01
    -13.876  0.7261E-09  0.4688E-09  0.1658E-03
    -13.767  0.1620E-12  0.8287E-13  0.4372E-07
    -13.659  0.3777E-17  0.1779E-17  0.1195E-11
    -13.551  0.0000E+00  0.0000E+00  0.0000E+00
    -13.442  0.0000E+00  0.0000E+00  0.0000E+00
    -13.334  0.0000E+00  0.0000E+00  0.0000E+00
    -13.226  0.0000E+00  0.0000E+00  0.0000E+00
    -13.117  0.0000E+00  0.0000E+00  0.0000E+00
    -13.009  0.0000E+00  0.0000E+00  0.0000E+00
    -12.901  0.0000E+00  0.0000E+00  0.0000E+00
    -12.792  0.0000E+00  0.0000E+00  0.0000E+00
    -12.684  0.0000E+00  0.0000E+00  0.0000E+00
    -12.576  0.0000E+00  0.0000E+00  0.0000E+00
    -12.467  0.0000E+00  0.0000E+00  0.0000E+00
    -12.359  0.0000E+00  0.0000E+00  0.0000E+00
    -12.251  0.0000E+00  0.0000E+00  0.0000E+00
    -12.142  0.0000E+00  0.0000E+00  0.0000E+00
    -12.034  0.0000E+00  0.0000E+00  0.0000E+00
    -11.926  0.0000E+00  0.0000E+00  0.0000E+00
    -11.817  0.0000E+00  0.0000E+00  0.0000E+00
    -11.709  0.0000E+00  0.0000E+00  0.0000E+00
    -11.601  0.0000E+00  0.0000E+00  0.0000E+00
    -11.492  0.0000E+00  0.0000E+00  0.0000E+00
    -11.384  0.0000E+00  0.0000E+00  0.0000E+00
    -11.276  0.1201E-15  0.2022E-25  0.2157E-25
    -11.167  0.4988E-11  0.8397E-21  0.8961E-21
    -11.059  0.2100E-07  0.1368E-15  0.1548E-15
    -10.951  0.9279E-05  0.3640E-11  0.4126E-11
    -10.842  0.4613E-03  0.1017E-07  0.1152E-07
    -10.734  0.3067E-02  0.3079E-05  0.3483E-05
    -10.626  0.9011E-02  0.1146E-03  0.1290E-03
    -10.517  0.3519E-01  0.6596E-03  0.7338E-03
    -10.409  0.3556E-01  0.7447E-03  0.8147E-03
    -10.301  0.1660E-01  0.6183E-03  0.6536E-03
    -10.192  0.3875E-01  0.1906E-02  0.1990E-02
    -10.084  0.5605E-01  0.3495E-02  0.3512E-02
     -9.976  0.9384E-01  0.6598E-02  0.6573E-02
     -9.867  0.3984E-01  0.2878E-02  0.2885E-02
     -9.759  0.1293E-01  0.1387E-02  0.1230E-02
     -9.651  0.4027E-01  0.5043E-02  0.4616E-02
     -9.542  0.1036E+00  0.1399E-01  0.1299E-01
     -9.434  0.9293E-01  0.1341E-01  0.1220E-01
     -9.326  0.6723E-01  0.1152E-01  0.1063E-01
     -9.217  0.6781E-01  0.1288E-01  0.1181E-01
     -9.109  0.6296E-01  0.1451E-01  0.1192E-01
     -9.001  0.4799E-01  0.1236E-01  0.1011E-01
     -8.892  0.8387E-01  0.2589E-01  0.2290E-01
     -8.784  0.1529E+00  0.5110E-01  0.4486E-01
     -8.676  0.1024E+00  0.3763E-01  0.3270E-01
     -8.567  0.5358E-01  0.2694E-01  0.2099E-01
     -8.459  0.8301E-01  0.5134E-01  0.3975E-01
     -8.351  0.7844E-01  0.5388E-01  0.4331E-01
     -8.242  0.4259E-01  0.4105E-01  0.3148E-01
     -8.134  0.3840E-01  0.6511E-01  0.4608E-01
     -8.026  0.3123E-01  0.7511E-01  0.5274E-01
     -7.917  0.7656E-02  0.4244E-01  0.2902E-01
     -7.809  0.4370E-03  0.1336E-01  0.8989E-02
     -7.701  0.5016E-05  0.1013E-02  0.6872E-03
     -7.592  0.8121E-08  0.1133E-04  0.7782E-05
     -7.484  0.1468E-11  0.1556E-07  0.1078E-07
     -7.376  0.2728E-16  0.2378E-11  0.1657E-11
     -7.267  0.1435E-24  0.3872E-16  0.2707E-16
     -7.159  0.0000E+00  0.0000E+00  0.0000E+00
     -7.051  0.0000E+00  0.0000E+00  0.0000E+00
     -6.942  0.0000E+00  0.0000E+00  0.0000E+00
     -6.834  0.0000E+00  0.0000E+00  0.0000E+00
     -6.726  0.0000E+00  0.0000E+00  0.0000E+00
     -6.617  0.0000E+00  0.0000E+00  0.0000E+00
     -6.509  0.0000E+00  0.0000E+00  0.0000E+00
     -6.401  0.0000E+00  0.0000E+00  0.0000E+00
     -6.292  0.0000E+00  0.0000E+00  0.0000E+00
     -6.184  0.0000E+00  0.0000E+00  0.0000E+00
     -6.076  0.0000E+00  0.0000E+00  0.0000E+00
     -5.967  0.0000E+00  0.0000E+00  0.0000E+00
     -5.859  0.0000E+00  0.0000E+00  0.0000E+00
     -5.751  0.0000E+00  0.0000E+00  0.0000E+00
     -5.642  0.0000E+00  0.0000E+00  0.0000E+00
     -5.534  0.0000E+00  0.0000E+00  0.0000E+00
     -5.426  0.0000E+00  0.0000E+00  0.0000E+00
     -5.317  0.0000E+00  0.0000E+00  0.0000E+00
     -5.209  0.0000E+00  0.0000E+00  0.0000E+00
     -5.101  0.0000E+00  0.0000E+00  0.0000E+00
     -4.992  0.0000E+00  0.0000E+00  0.0000E+00
     -4.884  0.0000E+00  0.0000E+00  0.0000E+00
     -4.776  0.0000E+00  0.0000E+00  0.0000E+00
     -4.667  0.0000E+00  0.0000E+00  0.0000E+00
     -4.559  0.3990E-13  0.5559E-23  0.4801E-15
     -4.451  0.7717E-09  0.9322E-16  0.9285E-11
     -4.342  0.1528E-05  0.2062E-11  0.1837E-07
     -4.234  0.3288E-03  0.6521E-08  0.3925E-05
     -4.126  0.9328E-02  0.3521E-05  0.1058E-03
     -4.017  0.6182E-01  0.2915E-03  0.5706E-03
     -3.909  0.1805E+00  0.3670E-02  0.1258E-02
     -3.801  0.4440E+00  0.1603E-01  0.3518E-02
     -3.692  0.9402E+00  0.5471E-01  0.8510E-02
     -3.584  0.7350E+00  0.5795E-01  0.6468E-02
     -3.476  0.5020E+00  0.4320E-01  0.5978E-02
     -3.367  0.3691E+00  0.4719E-01  0.6102E-02
     -3.259  0.1413E+00  0.1858E-01  0.3119E-02
     -3.151  0.1931E+00  0.1425E-01  0.6025E-02
     -3.042  0.3195E+00  0.4027E-01  0.1047E-01
     -2.934  0.3452E+00  0.5174E-01  0.1138E-01
     -2.826  0.8449E-01  0.1273E-01  0.2827E-02
     -2.717  0.6525E-01  0.9797E-02  0.2512E-02
     -2.609  0.5208E-01  0.8194E-02  0.2068E-02
     -2.501  0.5669E-01  0.1463E-01  0.3063E-02
     -2.392  0.1364E+00  0.3346E-01  0.7723E-02
     -2.284  0.1622E+00  0.2581E-01  0.9803E-02
     -2.176  0.9630E-01  0.1251E-01  0.5942E-02
     -2.067  0.9971E-02  0.1288E-02  0.6175E-03
     -1.959  0.6834E-02  0.2047E-02  0.5329E-03
     -1.851  0.6852E-01  0.2072E-01  0.5365E-02
     -1.742  0.1116E+00  0.3236E-01  0.8796E-02
     -1.634  0.1190E+00  0.2660E-01  0.9699E-02
     -1.526  0.9229E-01  0.1925E-01  0.7576E-02
     -1.417  0.1189E-01  0.2473E-02  0.9761E-03
     -1.309  0.1961E-03  0.4176E-04  0.1625E-04
     -1.201  0.6709E-03  0.2880E-03  0.7833E-04
     -1.092  0.1319E-01  0.5392E-02  0.1530E-02
     -0.984  0.4561E-01  0.1613E-01  0.5213E-02
     -0.876  0.4065E-01  0.2959E-01  0.5507E-02
     -0.767  0.1167E-01  0.9539E-01  0.6373E-02
     -0.659  0.9808E-02  0.1428E+00  0.9290E-02
     -0.551  0.3464E-01  0.2365E+00  0.1800E-01
     -0.442  0.9253E-01  0.1568E+00  0.2075E-01
     -0.334  0.7461E-01  0.5277E-01  0.1210E-01
     -0.226  0.1696E-01  0.6553E-01  0.5200E-02
     -0.117  0.2739E-01  0.1427E+00  0.1151E-01
     -0.009  0.4701E-01  0.2638E+00  0.2171E-01
      0.099  0.7425E-01  0.3533E+00  0.2971E-01
      0.208  0.7281E-01  0.2369E+00  0.2349E-01
      0.316  0.1186E-01  0.3266E-01  0.3542E-02
      0.424  0.6295E-03  0.4395E-01  0.2632E-02
      0.533  0.1879E-02  0.1871E+00  0.1173E-01
      0.641  0.1977E-02  0.2154E+00  0.1357E-01
      0.749  0.8551E-02  0.2741E+00  0.2046E-01
      0.858  0.2849E-01  0.3263E+00  0.3163E-01
      0.966  0.3492E-01  0.2746E+00  0.2899E-01
      1.074  0.3314E-01  0.1679E+00  0.2056E-01
      1.183  0.3342E-01  0.2704E+00  0.3223E-01
      1.291  0.1339E-01  0.2487E+00  0.2733E-01
      1.399  0.2449E-01  0.1318E+00  0.1882E-01
      1.508  0.5683E-01  0.2730E+00  0.4335E-01
      1.616  0.3723E-01  0.3168E+00  0.4611E-01
      1.724  0.6943E-02  0.8862E-01  0.1293E-01
      1.833  0.5303E-03  0.1456E+00  0.2135E-01
      1.941  0.3600E-02  0.1765E+00  0.2852E-01
      2.049  0.7576E-02  0.1957E+00  0.3562E-01
      2.158  0.1032E-01  0.2860E+00  0.5422E-01
      2.266  0.1191E-01  0.2185E+00  0.4457E-01
      2.374  0.2441E-02  0.7291E-01  0.1468E-01
      2.483  0.6487E-04  0.1526E-01  0.3256E-02
      2.591  0.1962E-06  0.6668E-01  0.1704E-01
      2.699  0.1009E-09  0.1409E+00  0.3793E-01
      2.808  0.2069E-10  0.6024E-01  0.1723E-01
      2.916  0.2034E-11  0.5377E-02  0.1662E-02
      3.024  0.7552E-11  0.1456E-01  0.5812E-02
      3.132  0.3626E-10  0.6039E-01  0.2491E-01
      3.241  0.3097E-10  0.4452E-01  0.1899E-01
      3.349  0.1454E-10  0.8680E-02  0.4303E-02
      3.457  0.1934E-10  0.6036E-02  0.3592E-02
      3.566  0.5064E-11  0.1563E-02  0.9341E-03
      3.674  0.1739E-12  0.5371E-04  0.3210E-04
      3.782  0.6881E-15  0.2127E-06  0.1271E-06
      3.891  0.2895E-18  0.8958E-10  0.5353E-10
      3.999  0.1241E-22  0.3845E-14  0.2297E-14
      4.107  0.0000E+00  0.0000E+00  0.0000E+00
      4.216  0.0000E+00  0.0000E+00  0.0000E+00
      4.324  0.8202E-18  0.4719E-26  0.9530E-28
      4.432  0.9800E-13  0.5638E-21  0.1139E-22
      4.541  0.1228E-08  0.7062E-17  0.1426E-18
      4.649  0.1581E-05  0.9097E-14  0.1837E-15
      4.757  0.2203E-03  0.1269E-11  0.2627E-13
      4.866  0.3648E-02  0.6582E-10  0.1712E-10
      4.974  0.8165E-02  0.1144E-06  0.4256E-07
      5.082  0.2809E-02  0.3098E-04  0.1153E-04
      5.191  0.5813E-02  0.9840E-03  0.3640E-03
      5.299  0.2825E-01  0.5087E-02  0.1767E-02
      5.407  0.5058E-01  0.1042E-01  0.3025E-02
      5.516  0.3837E-01  0.1307E-01  0.3814E-02
      5.624  0.1733E-01  0.2256E-01  0.7138E-02
      5.732  0.3631E-01  0.2323E-01  0.6543E-02
      5.841  0.9061E-01  0.4711E-01  0.1807E-01
      5.949  0.1010E+00  0.5586E-01  0.2302E-01
      6.057  0.3637E-01  0.1844E-01  0.6697E-02
      6.166  0.3683E-01  0.3275E-01  0.1241E-01
      6.274  0.9912E-01  0.7539E-01  0.2409E-01
      6.382  0.2693E+00  0.1499E+00  0.4823E-01
      6.491  0.2822E+00  0.1385E+00  0.4955E-01
      6.599  0.2344E+00  0.1036E+00  0.3496E-01
      6.707  0.3103E+00  0.1503E+00  0.4376E-01
      6.816  0.2256E+00  0.1426E+00  0.4917E-01
      6.924  0.1958E+00  0.1332E+00  0.5713E-01
      7.032  0.1211E+00  0.6207E-01  0.3295E-01
      7.141  0.8830E-01  0.4249E-01  0.1968E-01
      7.249  0.9965E-01  0.8297E-01  0.3872E-01
      7.357  0.2552E+00  0.1732E+00  0.7154E-01
      7.466  0.3803E+00  0.1928E+00  0.7900E-01
      7.574  0.2180E+00  0.1073E+00  0.5351E-01
      7.682  0.1542E+00  0.1156E+00  0.4869E-01
      7.791  0.1012E+00  0.1669E+00  0.2805E-01
      7.899  0.5675E-01  0.1798E+00  0.9046E-02
      8.007  0.3117E-01  0.1031E+00  0.4397E-02
      8.116  0.3959E-02  0.3475E-01  0.1065E-02
      8.224  0.5082E-03  0.1309E-01  0.6303E-03
      8.332  0.5778E-02  0.5272E-01  0.7390E-02
      8.441  0.1902E-01  0.2566E+00  0.3805E-01
      8.549  0.5267E-01  0.4946E+00  0.7639E-01
      8.657  0.4540E-01  0.3913E+00  0.6121E-01
      8.766  0.1309E-01  0.1318E+00  0.2694E-01
      8.874  0.7093E-02  0.9126E-01  0.2601E-01
      8.982  0.2195E-01  0.2175E+00  0.5439E-01
      9.091  0.1213E+00  0.4390E+00  0.1039E+00
      9.199  0.2171E+00  0.4313E+00  0.1112E+00
      9.307  0.7158E-01  0.1310E+00  0.3193E-01
      9.416  0.3527E-02  0.6219E-01  0.1286E-01
      9.524  0.1766E-03  0.1243E+00  0.2674E-01
      9.632  0.1305E-02  0.1454E+00  0.4242E-01
      9.741  0.4071E-02  0.2533E+00  0.7641E-01
      9.849  0.4665E-01  0.2997E+00  0.6430E-01
      9.957  0.1508E+00  0.5569E+00  0.1179E+00
     10.066  0.9932E-01  0.4005E+00  0.9050E-01
     10.174  0.3076E-01  0.1550E+00  0.3003E-01
     10.282  0.1046E-01  0.1743E+00  0.3759E-01
     10.391  0.2028E-01  0.2661E+00  0.5919E-01
     10.499  0.2383E-01  0.1378E+00  0.3189E-01
     10.607  0.3769E-01  0.1431E+00  0.4679E-01
     10.716  0.4201E-01  0.2328E+00  0.6903E-01
     10.824  0.3466E-01  0.2694E+00  0.5779E-01
     10.932  0.4740E-01  0.3821E+00  0.7540E-01
     11.041  0.2467E-01  0.2525E+00  0.5252E-01
     11.149  0.2083E-02  0.9645E-01  0.1603E-01
     11.257  0.7347E-04  0.6785E-01  0.9344E-02
     11.366  0.1192E-02  0.8748E-01  0.2287E-01
     11.474  0.3676E-02  0.2853E+00  0.7877E-01
     11.582  0.1631E-02  0.1968E+00  0.5311E-01
     11.691  0.1439E-03  0.5142E-01  0.1177E-01
     11.799  0.2422E-02  0.1265E+00  0.2592E-01
     11.907  0.1601E-01  0.1316E+00  0.3752E-01
     12.016  0.1501E-01  0.5518E-01  0.2241E-01
     12.124  0.3159E-02  0.2019E-01  0.8536E-02
     12.232  0.1246E-01  0.1151E+00  0.3943E-01
     12.341  0.3601E-01  0.3166E+00  0.9217E-01
     12.449  0.3808E-01  0.2823E+00  0.6375E-01
     12.557  0.3521E-01  0.2211E+00  0.3756E-01
     12.666  0.2083E-01  0.1126E+00  0.1401E-01
     12.774  0.8730E-02  0.1204E+00  0.1918E-01
     12.882  0.1748E-02  0.9157E-01  0.1876E-01
     12.991  0.1110E-01  0.4547E-01  0.7566E-02
     13.099  0.2033E-01  0.5988E-01  0.8357E-02
     13.207  0.2531E-01  0.1016E+00  0.1567E-01
     13.316  0.1671E-01  0.1026E+00  0.1539E-01
     13.424  0.4267E-02  0.1824E+00  0.2548E-01
     13.532  0.1643E-02  0.1621E+00  0.2316E-01
     13.641  0.1373E-03  0.6243E-01  0.1032E-01
     13.749  0.1408E-05  0.1246E+00  0.2289E-01
     13.857  0.1922E-08  0.7016E-01  0.1291E-01
     13.966  0.2688E-10  0.5466E-02  0.1006E-02
     14.074  0.2508E-12  0.5137E-04  0.9454E-05
     14.182  0.2572E-15  0.5269E-07  0.9696E-08
     14.291  0.2725E-19  0.5583E-11  0.1027E-11
     14.399  0.2510E-24  0.5137E-16  0.9454E-17
     14.507  0.1038E-24  0.8661E-17  0.7448E-18
     14.616  0.1078E-19  0.9001E-12  0.7740E-13
     14.724  0.1197E-15  0.9995E-08  0.8595E-09
     14.832  0.1370E-12  0.1144E-04  0.9835E-06
     14.941  0.1702E-10  0.1420E-02  0.1222E-03
     15.049  0.2529E-09  0.2110E-01  0.1814E-02
     15.157  0.5111E-09  0.4263E-01  0.3666E-02
     15.266  0.1484E-09  0.1238E-01  0.1065E-02
     15.374  0.5669E-11  0.4727E-03  0.4065E-04
     15.482  0.2509E-13  0.2091E-05  0.1798E-06
     15.591  0.1184E-16  0.9866E-09  0.8485E-10
     15.699  0.5704E-21  0.4752E-13  0.4087E-14
     15.807  0.0000E+00  0.0000E+00  0.0000E+00
     15.916  0.0000E+00  0.0000E+00  0.0000E+00
     16.024  0.0000E+00  0.0000E+00  0.0000E+00
     16.132  0.0000E+00  0.0000E+00  0.0000E+00
     16.241  0.0000E+00  0.0000E+00  0.0000E+00
     16.349  0.0000E+00  0.0000E+00  0.0000E+00
     16.457  0.0000E+00  0.0000E+00  0.0000E+00
     16.566  0.0000E+00  0.0000E+00  0.0000E+00
     16.56564227    -15.93389652  301      3.78418303      1.00000000
    -15.934  0.0000E+00  0.0000E+00  0.0000E+00
    -15.826  0.0000E+00  0.0000E+00  0.0000E+00
    -15.717  0.0000E+00  0.0000E+00  0.0000E+00
    -15.609  0.0000E+00  0.0000E+00  0.0000E+00
    -15.501  0.0000E+00  0.0000E+00  0.0000E+00
    -15.392  0.0000E+00  0.0000E+00  0.0000E+00
    -15.284  0.0000E+00  0.0000E+00  0.0000E+00
    -15.176  0.0000E+00  0.0000E+00  0.0000E+00
    -15.067  0.0000E+00  0.0000E+00  0.0000E+00
    -14.959  0.2266E-13  0.2361E-15  0.1180E-15
    -14.851  0.6299E-09  0.7924E-11  0.3367E-11
    -14.742  0.1837E-05  0.2970E-07  0.1045E-07
    -14.634  0.5865E-03  0.1425E-04  0.3962E-05
    -14.526  0.2216E-01  0.1100E-02  0.2429E-03
    -14.417  0.1119E+00  0.1582E-01  0.3291E-02
    -14.309  0.8446E-01  0.4092E-01  0.9796E-02
    -14.201  0.9637E-02  0.1791E-01  0.5755E-02
    -14.092  0.1763E-03  0.1217E-02  0.6113E-03
    -13.984  0.8751E-06  0.1191E-04  0.1016E-04
    -13.876  0.1315E-08  0.1628E-07  0.2205E-07
    -13.767  0.2901E-12  0.2947E-11  0.5437E-11
    -13.659  0.6985E-17  0.6257E-16  0.1410E-15
    -13.551  0.0000E+00  0.0000E+00  0.0000E+00
    -13.442  0.0000E+00  0.0000E+00  0.0000E+00
    -13.334  0.0000E+00  0.0000E+00  0.0000E+00
    -13.226  0.0000E+00  0.0000E+00  0.0000E+00
    -13.117  0.0000E+00  0.0000E+00  0.0000E+00
    -13.009  0.0000E+00  0.0000E+00  0.0000E+00
    -12.901  0.0000E+00  0.0000E+00  0.0000E+00
    -12.792  0.0000E+00  0.0000E+00  0.0000E+00
    -12.684  0.0000E+00  0.0000E+00  0.0000E+00
    -12.576  0.0000E+00  0.0000E+00  0.0000E+00
    -12.467  0.0000E+00  0.0000E+00  0.0000E+00
    -12.359  0.0000E+00  0.0000E+00  0.0000E+00
    -12.251  0.0000E+00  0.0000E+00  0.0000E+00
    -12.142  0.0000E+00  0.0000E+00  0.0000E+00
    -12.034  0.0000E+00  0.0000E+00  0.0000E+00
    -11.926  0.0000E+00  0.0000E+00  0.0000E+00
    -11.817  0.0000E+00  0.0000E+00  0.0000E+00
    -11.709  0.0000E+00  0.0000E+00  0.0000E+00
    -11.601  0.0000E+00  0.0000E+00  0.0000E+00
    -11.492  0.0000E+00  0.0000E+00  0.0000E+00
    -11.384  0.0000E+00  0.0000E+00  0.0000E+00
    -11.276  0.3004E-15  0.8121E-26  0.7640E-27
    -11.167  0.1248E-10  0.3374E-21  0.3174E-22
    -11.059  0.5255E-07  0.7317E-16  0.2257E-17
    -10.951  0.2322E-04  0.1960E-11  0.5803E-13
    -10.842  0.1154E-02  0.5476E-08  0.1619E-09
    -10.734  0.7694E-02  0.1657E-05  0.4891E-07
    -10.626  0.2328E-01  0.6165E-04  0.1808E-05
    -10.517  0.9225E-01  0.3540E-03  0.1023E-04
    -10.409  0.9374E-01  0.3980E-03  0.1131E-04
    -10.301  0.4569E-01  0.3089E-03  0.1003E-04
    -10.192  0.1100E+00  0.9255E-03  0.3175E-04
    -10.084  0.1648E+00  0.1623E-02  0.5836E-04
     -9.976  0.2819E+00  0.2984E-02  0.1130E-03
     -9.867  0.1204E+00  0.1282E-02  0.5095E-04
     -9.759  0.4264E-01  0.5747E-03  0.2106E-04
     -9.651  0.1400E+00  0.1923E-02  0.8561E-04
     -9.542  0.3707E+00  0.5103E-02  0.2474E-03
     -9.434  0.3403E+00  0.4798E-02  0.2299E-03
     -9.326  0.2661E+00  0.3528E-02  0.2240E-03
     -9.217  0.2819E+00  0.3607E-02  0.2598E-03
     -9.109  0.2822E+00  0.4143E-02  0.2288E-03
     -9.001  0.2291E+00  0.3302E-02  0.1853E-03
     -8.892  0.4597E+00  0.4930E-02  0.4696E-03
     -8.784  0.8829E+00  0.8853E-02  0.9269E-03
     -8.676  0.6311E+00  0.5613E-02  0.6957E-03
     -8.567  0.4015E+00  0.3885E-02  0.3641E-03
     -8.459  0.7321E+00  0.6223E-02  0.6008E-03
     -8.351  0.7671E+00  0.4869E-02  0.6465E-03
     -8.242  0.5475E+00  0.3001E-02  0.3686E-03
     -8.134  0.7989E+00  0.3429E-02  0.4112E-03
     -8.026  0.9012E+00  0.2673E-02  0.4032E-03
     -7.917  0.4907E+00  0.5727E-03  0.1782E-03
     -7.809  0.1509E+00  0.2803E-04  0.4170E-04
     -7.701  0.1143E-01  0.3274E-06  0.2523E-05
     -7.592  0.1285E-03  0.8359E-09  0.2325E-07
     -7.484  0.1770E-06  0.4258E-12  0.2714E-10
     -7.376  0.2713E-10  0.3217E-16  0.3681E-14
     -7.267  0.4423E-15  0.3285E-21  0.5643E-19
     -7.159  0.0000E+00  0.0000E+00  0.0000E+00
     -7.051  0.0000E+00  0.0000E+00  0.0000E+00
     -6.942  0.0000E+00  0.0000E+00  0.0000E+00
     -6.834  0.0000E+00  0.0000E+00  0.0000E+00
     -6.726  0.0000E+00  0.0000E+00  0.0000E+00
     -6.617  0.0000E+00  0.0000E+00  0.0000E+00
     -6.509  0.0000E+00  0.0000E+00  0.0000E+00
     -6.401  0.0000E+00  0.0000E+00  0.0000E+00
     -6.292  0.0000E+00  0.0000E+00  0.0000E+00