    2    2   20    1
  0.2376593E+02  0.4065993E-09  0.4065993E-09  0.4065993E-09  0.5000000E-15
   1.0000000000000000E-004
  CAR 
 unknown system                          
     18    260     13
 
  0.1262379E-14  0.1262379E-14  0.1262379E-14  0.1953125E-02
    1      -14.378050   1.000000
    2      -14.378049   1.000000
    3      -14.378043   1.000000
    4      -14.297910   1.000000
    5      -14.297909   1.000000
    6      -10.740602   1.000000
    7        3.383066   1.000000
    8        3.383129   1.000000
    9        3.383129   1.000000
   10        4.910890   0.000000
   11        8.070031   0.000000
   12        8.070288   0.000000
   13        8.070289   0.000000
 
  0.1250000E+00  0.1256835E-14  0.1258119E-14  0.3906250E-02
    1      -14.385776   1.000000
    2      -14.375069   1.000000
    3      -14.375063   1.000000
    4      -14.298162   1.000000
    5      -14.298161   1.000000
    6      -10.543843   1.000000
    7        1.430930   1.000000
    8        3.135950   1.000000
    9        3.135996   1.000000
   10        5.910002   0.000000
   11        8.440764   0.000000
   12        8.440992   0.000000
   13        8.530015   0.000000
 
  0.1280687E-14  0.1250000E+00  0.1260272E-14  0.3906250E-02
    1      -14.385776   1.000000
    2      -14.375069   1.000000
    3      -14.375063   1.000000
    4      -14.298162   1.000000
    5      -14.298161   1.000000
    6      -10.543843   1.000000
    7        1.430930   1.000000
    8        3.135950   1.000000
    9        3.135996   1.000000
   10        5.910002   0.000000
   11        8.440763   0.000000
   12        8.440993   0.000000
   13        8.530015   0.000000
 
  0.1272866E-14  0.1272866E-14  0.1250000E+00  0.3906250E-02
    1      -14.385776   1.000000
    2      -14.375067   1.000000
    3      -14.375064   1.000000
    4      -14.298162   1.000000
    5      -14.298161   1.000000
    6      -10.543843   1.000000
    7        1.430930   1.000000
    8        3.135950   1.000000
    9        3.135996   1.000000
   10        5.910002   0.000000
   11        8.440764   0.000000
   12        8.440992   0.000000
   13        8.530015   0.000000
 
  0.1250000E+00  0.1250000E+00  0.1250000E+00  0.3906250E-02
    1      -14.385770   1.000000
    2      -14.375071   1.000000
    3      -14.375069   1.000000
    4      -14.298162   1.000000
    5      -14.298161   1.000000
    6      -10.543852   1.000000
    7        1.430843   1.000000
    8        3.136022   1.000000
    9        3.136022   1.000000
   10        5.910104   0.000000
   11        8.440959   0.000000
   12        8.440961   0.000000
   13        8.529841   0.000000
 
  0.2500000E+00  0.1270720E-14  0.1273288E-14  0.3906250E-02
    1      -14.403319   1.000000
    2      -14.368138   1.000000
    3      -14.368133   1.000000
    4      -14.297935   1.000000
    5      -14.297933   1.000000
    6       -9.989242   1.000000
    7       -1.042597   1.000000
    8        2.659370   1.000000
    9        2.659394   1.000000
   10        5.762191   0.000000
   11        8.988842   0.000000
   12        8.989052   0.000000
   13       10.453198   0.000000
 
  0.1284598E-14  0.2500000E+00  0.1271524E-14  0.3906250E-02
    1      -14.403319   1.000000
    2      -14.368138   1.000000
    3      -14.368133   1.000000
    4      -14.297935   1.000000
    5      -14.297933   1.000000
    6       -9.989242   1.000000
    7       -1.042597   1.000000
    8        2.659369   1.000000
    9        2.659395   1.000000
   10        5.762191   0.000000
   11        8.988841   0.000000
   12        8.989053   0.000000
   13       10.453198   0.000000
 
  0.1249006E-14  0.1249006E-14  0.2500000E+00  0.3906250E-02
    1      -14.403319   1.000000
    2      -14.368137   1.000000
    3      -14.368135   1.000000
    4      -14.297935   1.000000
    5      -14.297934   1.000000
    6       -9.989242   1.000000
    7       -1.042597   1.000000
    8        2.659370   1.000000
    9        2.659394   1.000000
   10        5.762191   0.000000
   11        8.988841   0.000000
   12        8.989052   0.000000
   13       10.453198   0.000000
 
  0.2500000E+00  0.2500000E+00  0.2500000E+00  0.3906250E-02
    1      -14.403313   1.000000
    2      -14.368143   1.000000
    3      -14.368141   1.000000
    4      -14.297935   1.000000
    5      -14.297934   1.000000
    6       -9.989280   1.000000
    7       -1.042665   1.000000
    8        2.659464   1.000000
    9        2.659464   1.000000
   10        5.762344   0.000000
   11        8.988994   0.000000
   12        8.988996   0.000000
   13       10.453116   0.000000
 
  0.3750000E+00  0.1270728E-14  0.1274580E-14  0.3906250E-02
    1      -14.420587   1.000000
    2      -14.362224   1.000000
    3      -14.362221   1.000000
    4      -14.296397   1.000000
    5      -14.296394   1.000000
    6       -9.240314   1.000000
    7       -3.032126   1.000000
    8        2.283501   1.000000
    9        2.283507   1.000000
   10        5.403900   0.000000
   11        9.056623   0.000000
   12        9.056811   0.000000
   13       12.144005   0.000000
 
  0.1270728E-14  0.3750000E+00  0.1286678E-14  0.3906250E-02
    1      -14.420587   1.000000
    2      -14.362224   1.000000
    3      -14.362220   1.000000
    4      -14.296397   1.000000
    5      -14.296394   1.000000
    6       -9.240314   1.000000
    7       -3.032126   1.000000
    8        2.283500   1.000000
    9        2.283507   1.000000
   10        5.403900   0.000000
   11        9.056622   0.000000
   12        9.056812   0.000000
   13       12.144005   0.000000
 
  0.1282825E-14  0.1282825E-14  0.3750000E+00  0.3906250E-02
    1      -14.420587   1.000000
    2      -14.362223   1.000000
    3      -14.362222   1.000000
    4      -14.296396   1.000000
    5      -14.296395   1.000000
    6       -9.240314   1.000000
    7       -3.032126   1.000000
    8        2.283501   1.000000
    9        2.283507   1.000000
   10        5.403900   0.000000
   11        9.056622   0.000000
   12        9.056811   0.000000
   13       12.144005   0.000000
 
  0.3750000E+00  0.3750000E+00  0.3750000E+00  0.3906250E-02
    1      -14.420580   1.000000
    2      -14.362231   1.000000
    3      -14.362230   1.000000
    4      -14.296396   1.000000
    5      -14.296395   1.000000
    6       -9.240400   1.000000
    7       -3.032140   1.000000
    8        2.283606   1.000000
    9        2.283607   1.000000
   10        5.404082   0.000000
   11        9.056788   0.000000
   12        9.056789   0.000000
   13       12.144037   0.000000
 
  0.5000000E+00  0.1280275E-14  0.1285411E-14  0.1953125E-02
    1      -14.427444   1.000000
    2      -14.360188   1.000000
    3      -14.360185   1.000000
    4      -14.295488   1.000000
    5      -14.295485   1.000000
    6       -8.812671   1.000000
    7       -3.884354   1.000000
    8        2.147137   1.000000
    9        2.147139   1.000000
   10        5.268533   0.000000
   11        8.990196   0.000000
   12        8.990380   0.000000
   13       12.185566   0.000000
 
  0.1280275E-14  0.5000000E+00  0.1278415E-14  0.1953125E-02
    1      -14.427444   1.000000
    2      -14.360188   1.000000
    3      -14.360184   1.000000
    4      -14.295488   1.000000
    5      -14.295485   1.000000
    6       -8.812671   1.000000
    7       -3.884354   1.000000
    8        2.147138   1.000000
    9        2.147139   1.000000
   10        5.268533   0.000000
   11        8.990194   0.000000
   12        8.990381   0.000000
   13       12.185566   0.000000
 
  0.1233379E-14  0.1233379E-14  0.5000000E+00  0.1953125E-02
    1      -14.427444   1.000000
    2      -14.360187   1.000000
    3      -14.360186   1.000000
    4      -14.295487   1.000000
    5      -14.295486   1.000000
    6       -8.812671   1.000000
    7       -3.884354   1.000000
    8        2.147137   1.000000
    9        2.147139   1.000000
   10        5.268533   0.000000
   11        8.990195   0.000000
   12        8.990380   0.000000
   13       12.185566   0.000000
 
  0.5000000E+00  0.5000000E+00  0.5000000E+00  0.1953125E-02
    1      -14.427436   1.000000
    2      -14.360196   1.000000
    3      -14.360195   1.000000
    4      -14.295487   1.000000
    5      -14.295486   1.000000
    6       -8.812794   1.000000
    7       -3.884330   1.000000
    8        2.147246   1.000000
    9        2.147246   1.000000
   10        5.268725   0.000000
   11        8.990375   0.000000
   12        8.990376   0.000000
   13       12.185672   0.000000
 
  0.1250000E+00  0.1250000E+00  0.1267515E-14  0.3906250E-02
    1      -14.391502   1.000000
    2      -14.372065   1.000000
    3      -14.372061   1.000000
    4      -14.300392   1.000000
    5      -14.296371   1.000000
    6      -10.477864   1.000000
    7        1.440275   1.000000
    8        2.691403   1.000000
    9        2.691475   1.000000
   10        6.687769   0.000000
   11        7.360703   0.000000
   12        9.085588   0.000000
   13        9.085717   0.000000
 
  0.1279365E-14  0.1250000E+00  0.1250000E+00  0.3906250E-02
    1      -14.391500   1.000000
    2      -14.372067   1.000000
    3      -14.372062   1.000000
    4      -14.300391   1.000000
    5      -14.296372   1.000000
    6      -10.477864   1.000000
    7        1.440275   1.000000
    8        2.691403   1.000000
    9        2.691475   1.000000
   10        6.687768   0.000000
   11        7.360704   0.000000
   12        9.085588   0.000000
   13        9.085717   0.000000
 
  0.1250000E+00  0.1259415E-14  0.1250000E+00  0.3906250E-02
    1      -14.391499   1.000000
    2      -14.372067   1.000000
    3      -14.372062   1.000000
    4      -14.300391   1.000000
    5      -14.296372   1.000000
    6      -10.477864   1.000000
    7        1.440274   1.000000
    8        2.691403   1.000000
    9        2.691476   1.000000
   10        6.687768   0.000000
   11        7.360702   0.000000
   12        9.085589   0.000000
   13        9.085718   0.000000
 
  0.2500000E+00  0.1250000E+00  0.1263723E-14  0.3906250E-02
    1      -14.406011   1.000000
    2      -14.366121   1.000000
    3      -14.364869   1.000000
    4      -14.302254   1.000000
    5      -14.295103   1.000000
    6      -10.039527   1.000000
    7       -0.447817   1.000000
    8        2.157607   1.000000
    9        2.178275   1.000000
   10        6.833054   0.000000
   11        7.780249   0.000000
   12        9.880705   0.000000
   13        9.940937   0.000000
 
  0.1283723E-14  0.2500000E+00  0.1250000E+00  0.3906250E-02
    1      -14.406010   1.000000
    2      -14.366122   1.000000
    3      -14.364870   1.000000
    4      -14.302253   1.000000
    5      -14.295104   1.000000
    6      -10.039527   1.000000
    7       -0.447817   1.000000
    8        2.157607   1.000000
    9        2.178275   1.000000
   10        6.833054   0.000000
   11        7.780249   0.000000
   12        9.880704   0.000000
   13        9.940937   0.000000
 
  0.1250000E+00  0.1262891E-14  0.2500000E+00  0.3906250E-02
    1      -14.406009   1.000000
    2      -14.366122   1.000000
    3      -14.364870   1.000000
    4      -14.302254   1.000000
    5      -14.295104   1.000000
    6      -10.039527   1.000000
    7       -0.447817   1.000000
    8        2.157608   1.000000
    9        2.178275   1.000000
   10        6.833053   0.000000
   11        7.780248   0.000000
   12        9.880705   0.000000
   13        9.940937   0.000000
 
  0.1250000E+00  0.1250000E+00 -0.1250000E+00  0.3906250E-02
    1      -14.406012   1.000000
    2      -14.366115   1.000000
    3      -14.364871   1.000000
    4      -14.302253   1.000000
    5      -14.295103   1.000000
    6      -10.039518   1.000000
    7       -0.447849   1.000000
    8        2.157671   1.000000
    9        2.178294   1.000000
   10        6.833073   0.000000
   11        7.779971   0.000000
   12        9.880819   0.000000
   13        9.940906   0.000000
 
  0.2500000E+00  0.1250000E+00  0.2500000E+00  0.3906250E-02
    1      -14.406007   1.000000
    2      -14.366121   1.000000
    3      -14.364876   1.000000
    4      -14.302254   1.000000
    5      -14.295104   1.000000
    6      -10.039546   1.000000
    7       -0.447866   1.000000
    8        2.157712   1.000000
    9        2.178263   1.000000
   10        6.833181   0.000000
   11        7.780217   0.000000
   12        9.880786   0.000000
   13        9.940894   0.000000
 
  0.1250000E+00  0.2500000E+00  0.1256768E-14  0.3906250E-02
    1      -14.406011   1.000000
    2      -14.366121   1.000000
    3      -14.364869   1.000000
    4      -14.302254   1.000000
    5      -14.295103   1.000000
    6      -10.039527   1.000000
    7       -0.447817   1.000000
    8        2.157607   1.000000
    9        2.178275   1.000000
   10        6.833054   0.000000
   11        7.780249   0.000000
   12        9.880705   0.000000
   13        9.940937   0.000000
 
  0.1250000E+00 -0.1250000E+00 -0.1250000E+00  0.3906250E-02
    1      -14.406010   1.000000
    2      -14.366115   1.000000
    3      -14.364872   1.000000
    4      -14.302252   1.000000
    5      -14.295104   1.000000
    6      -10.039518   1.000000
    7       -0.447848   1.000000
    8        2.157672   1.000000
    9        2.178295   1.000000
   10        6.833073   0.000000
   11        7.779971   0.000000
   12        9.880819   0.000000
   13        9.940907   0.000000
 
  0.2500000E+00  0.2500000E+00  0.1250000E+00  0.3906250E-02
    1      -14.406009   1.000000
    2      -14.366121   1.000000
    3      -14.364875   1.000000
    4      -14.302254   1.000000
    5      -14.295103   1.000000
    6      -10.039546   1.000000
    7       -0.447866   1.000000
    8        2.157712   1.000000
    9        2.178263   1.000000
   10        6.833182   0.000000
   11        7.780218   0.000000
   12        9.880785   0.000000
   13        9.940894   0.000000
 
  0.1260722E-14  0.1250000E+00  0.2500000E+00  0.3906250E-02
    1      -14.406010   1.000000
    2      -14.366122   1.000000
    3      -14.364870   1.000000
    4      -14.302253   1.000000
    5      -14.295104   1.000000
    6      -10.039527   1.000000
    7       -0.447817   1.000000
    8        2.157607   1.000000
    9        2.178275   1.000000
   10        6.833054   0.000000
   11        7.780249   0.000000
   12        9.880704   0.000000
   13        9.940937   0.000000
 
 -0.1250000E+00  0.1250000E+00 -0.1250000E+00  0.3906250E-02
    1      -14.406010   1.000000
    2      -14.366115   1.000000
    3      -14.364872   1.000000
    4      -14.302252   1.000000
    5      -14.295103   1.000000
    6      -10.039518   1.000000
    7       -0.447848   1.000000
    8        2.157672   1.000000
    9        2.178295   1.000000
   10        6.833073   0.000000
   11        7.779970   0.000000
   12        9.880820   0.000000
   13        9.940906   0.000000
 
  0.1250000E+00  0.2500000E+00  0.2500000E+00  0.3906250E-02
    1      -14.406007   1.000000
    2      -14.366121   1.000000
    3      -14.364876   1.000000
    4      -14.302253   1.000000
    5      -14.295104   1.000000
    6      -10.039546   1.000000
    7       -0.447866   1.000000
    8        2.157712   1.000000
    9        2.178263   1.000000
   10        6.833182   0.000000
   11        7.780218   0.000000
   12        9.880784   0.000000
   13        9.940894   0.000000
 
  0.2500000E+00  0.1283723E-14  0.1250000E+00  0.3906250E-02
    1      -14.406009   1.000000
    2      -14.366122   1.000000
    3      -14.364870   1.000000
    4      -14.302254   1.000000
    5      -14.295104   1.000000
    6      -10.039527   1.000000
    7       -0.447817   1.000000
    8        2.157608   1.000000
    9        2.178275   1.000000
   10        6.833053   0.000000
   11        7.780248   0.000000
   12        9.880706   0.000000
   13        9.940937   0.000000
 
  0.3750000E+00  0.1250000E+00  0.1281929E-14  0.3906250E-02
    1      -14.421255   1.000000
    2      -14.361050   1.000000
    3      -14.358469   1.000000
    4      -14.301853   1.000000
    5      -14.294078   1.000000
    6       -9.334943   1.000000
    7       -2.456407   1.000000
    8        1.542563   1.000000
    9        1.831792   1.000000
   10        6.527446   0.000000
   11        8.541681   0.000000
   12       10.009445   0.000000
   13       10.613382   0.000000
 
  0.1276792E-14  0.3750000E+00  0.1250000E+00  0.3906250E-02
    1      -14.421254   1.000000
    2      -14.361049   1.000000
    3      -14.358470   1.000000
    4      -14.301852   1.000000
    5      -14.294079   1.000000
    6       -9.334943   1.000000
    7       -2.456407   1.000000
    8        1.542563   1.000000
    9        1.831792   1.000000
   10        6.527446   0.000000
   11        8.541682   0.000000
   12       10.009444   0.000000
   13       10.613382   0.000000
 
  0.1250000E+00  0.1249006E-14  0.3750000E+00  0.3906250E-02
    1      -14.421253   1.000000
    2      -14.361049   1.000000
    3      -14.358470   1.000000
    4      -14.301853   1.000000
    5      -14.294079   1.000000
    6       -9.334943   1.000000
    7       -2.456407   1.000000
    8        1.542563   1.000000
    9        1.831792   1.000000
   10        6.527445   0.000000
   11        8.541681   0.000000
   12       10.009445   0.000000
   13       10.613382   0.000000
 
  0.1250000E+00  0.1250000E+00 -0.2500000E+00  0.3906250E-02
    1      -14.421255   1.000000
    2      -14.361044   1.000000
    3      -14.358470   1.000000
    4      -14.301851   1.000000
    5      -14.294078   1.000000
    6       -9.334929   1.000000
    7       -2.456447   1.000000
    8        1.542612   1.000000
    9        1.831839   1.000000
   10        6.527451   0.000000
   11        8.541463   0.000000
   12       10.009536   0.000000
   13       10.613182   0.000000
 
  0.3750000E+00  0.2500000E+00  0.3750000E+00  0.3906250E-02
    1      -14.421249   1.000000
    2      -14.361052   1.000000
    3      -14.358478   1.000000
    4      -14.301852   1.000000
    5      -14.294079   1.000000
    6       -9.335001   1.000000
    7       -2.456437   1.000000
    8        1.542616   1.000000
    9        1.831909   1.000000
   10        6.527617   0.000000
   11        8.541684   0.000000
   12       10.009538   0.000000
   13       10.613314   0.000000
 
  0.1250000E+00  0.3750000E+00  0.1274092E-14  0.3906250E-02
    1      -14.421255   1.000000
    2      -14.361050   1.000000
    3      -14.358469   1.000000
    4      -14.301853   1.000000
    5      -14.294078   1.000000
    6       -9.334943   1.000000
    7       -2.456407   1.000000
    8        1.542563   1.000000
    9        1.831792   1.000000
   10        6.527446   0.000000
   11        8.541681   0.000000
   12       10.009444   0.000000
   13       10.613382   0.000000
 
  0.2500000E+00 -0.1250000E+00 -0.1250000E+00  0.3906250E-02
    1      -14.421254   1.000000
    2      -14.361044   1.000000
    3      -14.358471   1.000000
    4      -14.301850   1.000000
    5      -14.294079   1.000000
    6       -9.334929   1.000000
    7       -2.456447   1.000000
    8        1.542612   1.000000
    9        1.831839   1.000000
   10        6.527451   0.000000
   11        8.541463   0.000000
   12       10.009536   0.000000
   13       10.613182   0.000000
 
  0.3750000E+00  0.3750000E+00  0.2500000E+00  0.3906250E-02
    1      -14.421250   1.000000
    2      -14.361053   1.000000
    3      -14.358477   1.000000
    4      -14.301853   1.000000
    5      -14.294078   1.000000
    6       -9.335001   1.000000
    7       -2.456437   1.000000
    8        1.542616   1.000000
    9        1.831908   1.000000
   10        6.527618   0.000000
   11        8.541685   0.000000
   12       10.009538   0.000000
   13       10.613314   0.000000
 
  0.1249006E-14  0.1250000E+00  0.3750000E+00  0.3906250E-02
    1      -14.421254   1.000000
    2      -14.361049   1.000000
    3      -14.358470   1.000000
    4      -14.301852   1.000000
    5      -14.294079   1.000000
    6       -9.334943   1.000000
    7       -2.456407   1.000000
    8        1.542563   1.000000
    9        1.831792   1.000000
   10        6.527446   0.000000
   11        8.541682   0.000000
   12       10.009444   0.000000
   13       10.613382   0.000000
 
 -0.1250000E+00  0.2500000E+00 -0.1250000E+00  0.3906250E-02
    1      -14.421254   1.000000
    2      -14.361044   1.000000
    3      -14.358471   1.000000
    4      -14.301851   1.000000
    5      -14.294079   1.000000
    6       -9.334929   1.000000
    7       -2.456447   1.000000
    8        1.542612   1.000000
    9        1.831840   1.000000
   10        6.527450   0.000000
   11        8.541463   0.000000
   12       10.009537   0.000000
   13       10.613182   0.000000
 
  0.2500000E+00  0.3750000E+00  0.3750000E+00  0.3906250E-02
    1      -14.421249   1.000000
    2      -14.361052   1.000000
    3      -14.358478   1.000000
    4      -14.301852   1.000000
    5      -14.294079   1.000000
    6       -9.335001   1.000000
    7       -2.456437   1.000000
    8        1.542616   1.000000
    9        1.831908   1.000000
   10        6.527617   0.000000
   11        8.541685   0.000000
   12       10.009537   0.000000
   13       10.613314   0.000000
 
  0.3750000E+00  0.1276792E-14  0.1250000E+00  0.3906250E-02
    1      -14.421253   1.000000
    2      -14.361049   1.000000
    3      -14.358470   1.000000
    4      -14.301853   1.000000
    5      -14.294079   1.000000
    6       -9.334943   1.000000
    7       -2.456407   1.000000
    8        1.542563   1.000000
    9        1.831792   1.000000
   10        6.527445   0.000000
   11        8.541681   0.000000
   12       10.009445   0.000000
   13       10.613382   0.000000
 
  0.5000000E+00  0.1250000E+00  0.1292760E-14  0.3906250E-02
    1      -14.429746   1.000000
    2      -14.358296   1.000000
    3      -14.356186   1.000000
    4      -14.299059   1.000000
    5      -14.294702   1.000000
    6       -8.729604   1.000000
    7       -3.701972   1.000000
    8        1.066782   1.000000
    9        1.816409   1.000000
   10        6.342503   0.000000
   11        8.663699   0.000000
   12        9.710724   0.000000
   13       12.290472   0.000000
 
  0.1286339E-14  0.5000000E+00  0.1250000E+00  0.3906250E-02
    1      -14.429746   1.000000
    2      -14.358295   1.000000
    3      -14.356188   1.000000
    4      -14.299058   1.000000
    5      -14.294703   1.000000
    6       -8.729604   1.000000
    7       -3.701972   1.000000
    8        1.066782   1.000000
    9        1.816408   1.000000
   10        6.342502   0.000000
   11        8.663699   0.000000
   12        9.710724   0.000000
   13       12.290472   0.000000
 
  0.1250000E+00  0.1239459E-14  0.5000000E+00  0.3906250E-02
    1      -14.429746   1.000000
    2      -14.358295   1.000000
    3      -14.356188   1.000000
    4      -14.299059   1.000000
    5      -14.294703   1.000000
    6       -8.729604   1.000000
    7       -3.701972   1.000000
    8        1.066781   1.000000
    9        1.816409   1.000000
   10        6.342502   0.000000
   11        8.663699   0.000000
   12        9.710725   0.000000
   13       12.290471   0.000000
 
  0.1250000E+00  0.1250000E+00 -0.3750000E+00  0.3906250E-02
    1      -14.429745   1.000000
    2      -14.358291   1.000000
    3      -14.356187   1.000000
    4      -14.299056   1.000000
    5      -14.294702   1.000000
    6       -8.729599   1.000000
    7       -3.701987   1.000000
    8        1.066803   1.000000
    9        1.816440   1.000000
   10        6.342522   0.000000
   11        8.663594   0.000000
   12        9.710824   0.000000
   13       12.290211   0.000000
 
  0.5000000E+00  0.3750000E+00  0.5000000E+00  0.3906250E-02
    1      -14.429740   1.000000
    2      -14.358301   1.000000
    3      -14.356197   1.000000
    4      -14.299058   1.000000
    5      -14.294703   1.000000
    6       -8.729712   1.000000
    7       -3.701951   1.000000
    8        1.066855   1.000000
    9        1.816520   1.000000
   10        6.342699   0.000000
   11        8.663764   0.000000
   12        9.710854   0.000000
   13       12.290346   0.000000
 
  0.1250000E+00  0.5000000E+00  0.1273635E-14  0.3906250E-02
    1      -14.429746   1.000000
    2      -14.358296   1.000000
    3      -14.356186   1.000000
    4      -14.299059   1.000000
    5      -14.294702   1.000000
    6       -8.729604   1.000000
    7       -3.701972   1.000000
    8        1.066782   1.000000
    9        1.816409   1.000000
   10        6.342503   0.000000
   11        8.663699   0.000000
   12        9.710724   0.000000
   13       12.290472   0.000000
 
  0.3750000E+00 -0.1250000E+00 -0.1250000E+00  0.3906250E-02
    1      -14.429745   1.000000
    2      -14.358291   1.000000
    3      -14.356188   1.000000
    4      -14.299055   1.000000
    5      -14.294704   1.000000
    6       -8.729600   1.000000
    7       -3.701988   1.000000
    8        1.066802   1.000000
    9        1.816439   1.000000
   10        6.342521   0.000000
   11        8.663595   0.000000
   12        9.710824   0.000000
   13       12.290211   0.000000
 
  0.5000000E+00  0.5000000E+00  0.3750000E+00  0.3906250E-02
    1      -14.429740   1.000000
    2      -14.358301   1.000000
    3      -14.356195   1.000000
    4      -14.299059   1.000000
    5      -14.294702   1.000000
    6       -8.729712   1.000000
    7       -3.701951   1.000000
    8        1.066856   1.000000
    9        1.816519   1.000000
   10        6.342700   0.000000
   11        8.663764   0.000000
   12        9.710853   0.000000
   13       12.290347   0.000000
 
  0.1255070E-14  0.1250000E+00  0.5000000E+00  0.3906250E-02
    1      -14.429746   1.000000
    2      -14.358295   1.000000
    3      -14.356188   1.000000
    4      -14.299058   1.000000
    5      -14.294703   1.000000
    6       -8.729604   1.000000
    7       -3.701972   1.000000
    8        1.066782   1.000000
    9        1.816408   1.000000
   10        6.342502   0.000000
   11        8.663699   0.000000
   12        9.710724   0.000000
   13       12.290471   0.000000
 
 -0.1250000E+00  0.3750000E+00 -0.1250000E+00  0.3906250E-02
    1      -14.429745   1.000000
    2      -14.358291   1.000000
    3      -14.356189   1.000000
    4      -14.299056   1.000000
    5      -14.294703   1.000000
    6       -8.729600   1.000000
    7       -3.701988   1.000000
    8        1.066802   1.000000
    9        1.816440   1.000000
   10        6.342521   0.000000
   11        8.663594   0.000000
   12        9.710825   0.000000
   13       12.290210   0.000000
 
  0.3750000E+00  0.5000000E+00  0.5000000E+00  0.3906250E-02
    1      -14.429740   1.000000
    2      -14.358301   1.000000
    3      -14.356197   1.000000
    4      -14.299057   1.000000
    5      -14.294703   1.000000
    6       -8.729712   1.000000
    7       -3.701951   1.000000
    8        1.066856   1.000000
    9        1.816519   1.000000
   10        6.342700   0.000000
   11        8.663765   0.000000
   12        9.710853   0.000000
   13       12.290346   0.000000
 
  0.5000000E+00  0.1286339E-14  0.1250000E+00  0.3906250E-02
    1      -14.429746   1.000000
    2      -14.358295   1.000000
    3      -14.356188   1.000000
    4      -14.299059   1.000000
    5      -14.294703   1.000000
    6       -8.729604   1.000000
    7       -3.701972   1.000000
    8        1.066781   1.000000
    9        1.816409   1.000000
   10        6.342502   0.000000
   11        8.663699   0.000000
   12        9.710725   0.000000
   13       12.290471   0.000000
 
 -0.3750000E+00  0.1250000E+00  0.1286322E-14  0.3906250E-02
    1      -14.426993   1.000000
    2      -14.358538   1.000000
    3      -14.358150   1.000000
    4      -14.297437   1.000000
    5      -14.296683   1.000000
    6       -8.881765   1.000000
    7       -3.413876   1.000000
    8        0.909164   1.000000
    9        2.106787   1.000000
   10        6.397471   0.000000
   11        8.871962   0.000000
   12        9.457004   0.000000
   13       12.331913   0.000000
 
  0.1288890E-14 -0.3750000E+00  0.1250000E+00  0.3906250E-02
    1      -14.426993   1.000000
    2      -14.358537   1.000000
    3      -14.358151   1.000000
    4      -14.297438   1.000000
    5      -14.296682   1.000000
    6       -8.881765   1.000000
    7       -3.413876   1.000000
    8        0.909164   1.000000
    9        2.106787   1.000000
   10        6.397471   0.000000
   11        8.871962   0.000000
   12        9.457003   0.000000
   13       12.331913   0.000000
 
  0.1250000E+00  0.1236908E-14 -0.3750000E+00  0.3906250E-02
    1      -14.426993   1.000000
    2      -14.358537   1.000000
    3      -14.358152   1.000000
    4      -14.297438   1.000000
    5      -14.296682   1.000000
    6       -8.881765   1.000000
    7       -3.413876   1.000000
    8        0.909163   1.000000
    9        2.106788   1.000000
   10        6.397470   0.000000
   11        8.871962   0.000000
   12        9.457004   0.000000
   13       12.331913   0.000000
 
  0.1250000E+00  0.1250000E+00  0.5000000E+00  0.3906250E-02
    1      -14.426995   1.000000
    2      -14.358539   1.000000
    3      -14.358156   1.000000
    4      -14.297441   1.000000
    5      -14.296683   1.000000
    6       -8.881786   1.000000
    7       -3.413859   1.000000
    8        0.909132   1.000000
    9        2.106801   1.000000
   10        6.397519   0.000000
   11        8.871898   0.000000
   12        9.457127   0.000000
   13       12.332032   0.000000
 
 -0.3750000E+00  0.5000000E+00 -0.3750000E+00  0.3906250E-02
    1      -14.426984   1.000000
    2      -14.358541   1.000000
    3      -14.358158   1.000000
    4      -14.297436   1.000000
    5      -14.296679   1.000000
    6       -8.881865   1.000000