unknown system                          
    1.000000000000000     
     0.000032    2.831428    2.831428
     2.831428    0.000032    2.831428
     2.831428    2.831428    0.000032
   Ga   As
     1     1
Direct
  0.000000  0.000000  0.000000
  0.250000  0.250000  0.250000
 
   56   56   56
 -.47900030307E+02 -.47875632352E+02 -.47315149951E+02 -.46359859125E+02 -.44859054170E+02
 -.42875109905E+02 -.40007437465E+02 -.36775147207E+02 -.32546293467E+02 -.28214574198E+02
 -.23463422118E+02 -.19117104636E+02 -.13784135856E+02 -.91361350833E+01 -.43221345349E+01
 0.63688024780E+00 0.20751350937E+01 0.25295872207E+01 0.31463721447E+01 0.40048097894E+01
 0.44188105920E+01 0.48820064658E+01 0.50375468150E+01 0.52666218049E+01 0.52903299989E+01
 0.53905438585E+01 0.53572791923E+01 0.54140293379E+01 0.53592079908E+01 0.54095763255E+01
 0.53514712951E+01 0.53882499743E+01 0.52842185823E+01 0.52612707493E+01 0.50423271176E+01
 0.48758654770E+01 0.44276690675E+01 0.40105902463E+01 0.31423315310E+01 0.25182219244E+01
 0.20763479523E+01 0.63865653956E+00 -.43190836809E+01 -.91297085353E+01 -.13779509759E+02
 -.19115510540E+02 -.23461000694E+02 -.28216860984E+02 -.32546910854E+02 -.36775307402E+02
 -.40006215888E+02 -.42875737213E+02 -.44858724237E+02 -.46359543555E+02 -.47314935678E+02
 -.47875670511E+02 -.47875632337E+02 -.47518119133E+02 -.46692310521E+02 -.45517161936E+02
 -.43756915851E+02 -.41337608059E+02 -.38357912928E+02 -.34539828528E+02 -.30265865677E+02
 -.25666703028E+02 -.21129260007E+02 -.16378818054E+02 -.11032381543E+02 -.68465138970E+01
 -.13559787940E+01 0.16881055541E+01 0.22457508900E+01 0.26799607632E+01 0.34980554249E+01
 0.40666371388E+01 0.44567185449E+01 0.47006227641E+01 0.48466426265E+01 0.49041042866E+01
 0.49374205860E+01 0.49281883980E+01 0.49271350450E+01 0.49124992320E+01 0.49281103303E+01
 0.49257936339E+01 0.49445249378E+01 0.49311824359E+01 0.49219766161E+01 0.48348715257E+01
 0.47057214621E+01 0.44453043164E+01 0.40688508015E+01 0.34946288040E+01 0.26913817436E+01
 0.22391740831E+01 0.16957715366E+01 -.13561949271E+01 -.68479516720E+01 -.11037735936E+02
 -.16398958152E+02 -.21135356247E+02 -.25696540187E+02 -.30232695216E+02 -.34601603054E+02
 -.38315665065E+02 -.41423059396E+02 -.43809415674E+02 -.45488348302E+02 -.46749162040E+02
 -.47444915335E+02 -.47809668405E+02 -.47315149896E+02 -.46692310528E+02 -.45777341962E+02
 -.44203359066E+02 -.42126713974E+02 -.39348430603E+02 -.35909963309E+02 -.31801809201E+02
 -.27405413566E+02 -.22770208736E+02 -.18402962051E+02 -.13018284031E+02 -.86358503119E+01
 -.37203529575E+01 0.89325976490E+00 0.19973835275E+01 0.23751911191E+01 0.29591983909E+01
 0.37131295974E+01 0.40021844094E+01 0.43253819049E+01 0.43921623749E+01 0.45080137657E+01
 0.44424730136E+01 0.44790168561E+01 0.43742022990E+01 0.44080681143E+01 0.43312983833E+01
 0.43969462353E+01 0.43626749569E+01 0.44693626194E+01 0.44385991980E+01 0.45092611870E+01
 0.43931813082E+01 0.43401104098E+01 0.40030073563E+01 0.37038854042E+01 0.29510479232E+01
 0.23835686928E+01 0.20006702037E+01 0.89516901415E+00 -.37213879989E+01 -.86187798163E+01
 -.13048808277E+02 -.18447196737E+02 -.22797678721E+02 -.27432270155E+02 -.31790986000E+02
 -.35959752552E+02 -.39322870217E+02 -.42173265544E+02 -.44178837658E+02 -.45770334662E+02
 -.46697210885E+02 -.47330192807E+02 -.47440371124E+02 -.46359859102E+02 -.45517161919E+02
 -.44203359040E+02 -.42335799865E+02 -.39869084613E+02 -.36732840882E+02 -.32948578439E+02
 -.28683047257E+02 -.24208897725E+02 -.19874705783E+02 -.14917124950E+02 -.99805995957E+01
 -.57387335594E+01 -.40767011629E+00 0.17502081705E+01 0.21388680520E+01 0.25174825255E+01
 0.32505047431E+01 0.36168296907E+01 0.39084520581E+01 0.39940400152E+01 0.40237607989E+01
 0.39598360013E+01 0.38732802491E+01 0.37853796994E+01 0.37157329421E+01 0.36836420849E+01
 0.36834751232E+01 0.37387695257E+01 0.37958369546E+01 0.38861741626E+01 0.39449134858E+01
 0.40233878538E+01 0.39752377050E+01 0.39127142431E+01 0.36160028150E+01 0.32677620335E+01
 0.25077953198E+01 0.21449497207E+01 0.17403798739E+01 -.41468536359E+00 -.57548290197E+01
 -.99853091301E+01 -.14900721714E+02 -.19838294947E+02 -.24203694574E+02 -.28692248732E+02
 -.32948735242E+02 -.36774167963E+02 -.39894475824E+02 -.42424486557E+02 -.44181446025E+02
 -.45511505005E+02 -.46312584548E+02 -.46686316083E+02 -.46737403239E+02 -.44859054158E+02
 -.43756915844E+02 -.42126714076E+02 -.39869084642E+02 -.37036546113E+02 -.33472309649E+02
 -.29417140539E+02 -.25149925069E+02 -.20849956147E+02 -.16333617295E+02 -.11175685346E+02
 -.71843807769E+01 -.19899368632E+01 0.13800013501E+01 0.19182411532E+01 0.22244543377E+01
 0.27527115129E+01 0.33044828796E+01 0.34417992845E+01 0.36082994608E+01 0.34467018722E+01
 0.34455386120E+01 0.32144864265E+01 0.31722456861E+01 0.29739992408E+01 0.29773362011E+01
 0.28611231357E+01 0.29642590897E+01 0.29481544419E+01 0.31609918838E+01 0.32316599685E+01
 0.34597336108E+01 0.34669789136E+01 0.36050749303E+01 0.34206547764E+01 0.33055910873E+01
 0.27602618921E+01 0.22285654021E+01 0.19069304620E+01 0.13891913495E+01 -.19829555495E+01
 -.71935141869E+01 -.11198016589E+02 -.16337479382E+02 -.20851920123E+02 -.25110440294E+02
 -.29384316501E+02 -.33438581361E+02 -.36935891965E+02 -.39868579093E+02 -.42058588699E+02
 -.43742269643E+02 -.44926355330E+02 -.45493148816E+02 -.45745385712E+02 -.45470280459E+02
 -.42875110035E+02 -.41337608184E+02 -.39348430742E+02 -.36732841022E+02 -.33472309798E+02
 -.29663140374E+02 -.25711472824E+02 -.21452598782E+02 -.17339406779E+02 -.12156120437E+02
 -.81974144166E+01 -.33575347859E+01 0.82415202180E+00 0.17789415686E+01 0.19729914961E+01
 0.23638893460E+01 0.29336084429E+01 0.30307010878E+01 0.31271684731E+01 0.29829057914E+01
 0.28828574259E+01 0.26443305282E+01 0.24480366574E+01 0.22023868954E+01 0.20568771299E+01
 0.19612571756E+01 0.19727051282E+01 0.20730477963E+01 0.22231640455E+01 0.24241226131E+01
 0.26007548097E+01 0.28696906728E+01 0.29951148167E+01 0.31420353501E+01 0.30375761081E+01
 0.29211627224E+01 0.23657844735E+01 0.19744661006E+01 0.17585839983E+01 0.82165428392E+00
 -.33638592221E+01 -.81786430795E+01 -.12153486679E+02 -.17286457677E+02 -.21448202525E+02
 -.25657329625E+02 -.29673616140E+02 -.33495061724E+02 -.36731497533E+02 -.39419312399E+02
 -.41408114807E+02 -.42905763080E+02 -.43721245770E+02 -.44147905107E+02 -.44144214479E+02
 -.43789282379E+02 -.40007437700E+02 -.38357913200E+02 -.35909963693E+02 -.32948578780E+02
 -.29417140787E+02 -.25711472962E+02 -.21610412153E+02 -.17780375388E+02 -.12754077436E+02
 -.87913140675E+01 -.43879658039E+01 0.21317601869E+00 0.15926162553E+01 0.18004743018E+01
 0.20265159150E+01 0.25924708940E+01 0.26388841670E+01 0.27099146565E+01 0.25351266117E+01
 0.23386439888E+01 0.19245048069E+01 0.16134367971E+01 0.12442908328E+01 0.10737598322E+01
 0.91326686780E+00 0.90529086156E+00 0.90420886111E+00 0.10663003597E+01 0.12711851287E+01
 0.16679638206E+01 0.19594900665E+01 0.22930842884E+01 0.25064047612E+01 0.27240116348E+01
 0.26569546587E+01 0.25852250743E+01 0.20129123719E+01 0.18224377365E+01 0.15837818698E+01
 0.23247175484E+00 -.44139029790E+01 -.87857373961E+01 -.12778670056E+02 -.17741487883E+02
 -.21669561537E+02 -.25675924751E+02 -.29375968522E+02 -.32961687401E+02 -.35879744724E+02
 -.38348569830E+02 -.40042074087E+02 -.41390370425E+02 -.42025310614E+02 -.42382890442E+02
 -.42140208365E+02 -.41404634779E+02 -.36775147736E+02 -.34539829116E+02 -.31801809750E+02
 -.28683047773E+02 -.25149925573E+02 -.21452599102E+02 -.17780375591E+02 -.13028793201E+02
 -.90983297028E+01 -.50611172862E+01 -.27478564787E+00 0.14278722060E+01 0.17159283903E+01
 0.17768293081E+01 0.22822860170E+01 0.23099100019E+01 0.23407186522E+01 0.20853438374E+01
 0.17234533122E+01 0.12067948962E+01 0.86107798595E+00 0.59660667780E+00 0.48888894707E+00
 0.40668492806E+00 0.38311275384E+00 0.37677380943E+00 0.40033311292E+00 0.45036361202E+00
 0.54663525268E+00 0.82154896062E+00 0.12866337957E+01 0.17517956228E+01 0.20439985498E+01
 0.23324521483E+01 0.23319861517E+01 0.22777528390E+01 0.17485371533E+01 0.17194495944E+01
 0.14210266603E+01 -.25207310673E+00 -.50681756584E+01 -.90422539114E+01 -.13048432450E+02
 -.17688672719E+02 -.21426644429E+02 -.25182458348E+02 -.28635227703E+02 -.31865549756E+02
 -.34577373658E+02 -.36715092204E+02 -.38341576546E+02 -.39398388588E+02 -.39838077266E+02
 -.39864706763E+02 -.39301894137E+02 -.38308755681E+02 -.32546294258E+02 -.30265866478E+02
 -.27405414410E+02 -.24208898514E+02 -.20849956746E+02 -.17339407329E+02 -.12754077809E+02
 -.90983298568E+01 -.52131172351E+01 -.55739970097E+00 0.13455589438E+01 0.16048428108E+01
 0.16152162156E+01 0.19808057678E+01 0.20763708062E+01 0.19986226583E+01 0.16639260523E+01
 0.11270496702E+01 0.69189140738E+00 0.40916286656E+00 0.29342924267E+00 0.15525128062E+00
 0.13507919528E-01 -.11804647630E+00 -.14826412328E+00 -.10424684252E+00 0.50435980228E-01
 0.18210134433E+00 0.29036869078E+00 0.33902418384E+00 0.63926726457E+00 0.12152875267E+01
 0.16564076037E+01 0.19718789208E+01 0.20792812788E+01 0.20125565397E+01 0.15847433455E+01
 0.16393014048E+01 0.13094401084E+01 -.52688758569E+00 -.52841703645E+01 -.90450836970E+01
 -.12801905549E+02 -.17316671310E+02 -.20805343287E+02 -.24252717669E+02 -.27282357472E+02
 -.30270035333E+02 -.32608304548E+02 -.34586145868E+02 -.35883218821E+02 -.36729916966E+02
 -.36929547594E+02 -.36771867466E+02 -.35963854278E+02 -.34610345518E+02 -.28214575332E+02
 -.25666704172E+02 -.22770209753E+02 -.19874706703E+02 -.16333618272E+02 -.12156121178E+02
 -.87913145768E+01 -.50611176870E+01 -.55739987808E+00 0.12558635898E+01 0.15849261481E+01
 0.15057488035E+01 0.18300392532E+01 0.18829822630E+01 0.17560867700E+01 0.12520520553E+01
 0.70550748393E+00 0.35617700977E+00 0.18640989147E+00 -.38500345873E-01 -.39689763368E+00
 -.88033695744E+00 -.12899101098E+01 -.15338638225E+01 -.15479225746E+01 -.12896978120E+01
 -.87192553215E+00 -.35171264378E+00 0.24854940221E-01 0.20756920156E+00 0.23324972113E+00
 0.74512834866E+00 0.13058306641E+01 0.17120419312E+01 0.18618320524E+01 0.18557813630E+01
 0.14580119644E+01 0.16354701568E+01 0.12279841610E+01 -.48138754988E+00 -.51153001900E+01
 -.87250625064E+01 -.12170505261E+02 -.16376663929E+02 -.19753213031E+02 -.22942709153E+02
 -.25668305093E+02 -.28243081358E+02 -.30294432454E+02 -.31904477889E+02 -.33000210948E+02
 -.33534511986E+02 -.33475576806E+02 -.32990284665E+02 -.31826769565E+02 -.30261228326E+02
 -.23463423498E+02 -.21129261271E+02 -.18402963389E+02 -.14917126284E+02 -.11175686365E+02
 -.81974152276E+01 -.43879666019E+01 -.27478610816E+00 0.13455587461E+01 0.15849260909E+01
 0.14978428076E+01 0.17022599257E+01 0.17727013086E+01 0.15323914526E+01 0.96871872654E+00
 0.41562974398E+00 0.18890149975E+00 -.46068794266E-01 -.52572296664E+00 -.13285799756E+01
 -.22496534618E+01 -.30933208968E+01 -.36607234371E+01 -.38741134057E+01 -.36795372506E+01
 -.31266154484E+01 -.23052928553E+01 -.13423983641E+01 -.49103623742E+00 0.58995364388E-01
 0.96050800748E-01 0.38505659866E+00 0.10468940183E+01 0.15212036135E+01 0.17340967446E+01
 0.17708305765E+01 0.14150136030E+01 0.16506619337E+01 0.12561969183E+01 -.20577671232E+00
 -.44542453899E+01 -.81990888802E+01 -.11072122904E+02 -.15095947204E+02 -.18261741532E+02
 -.21161908856E+02 -.23468766762E+02 -.25712476312E+02 -.27354928804E+02 -.28721727198E+02
 -.29470333640E+02 -.29768560232E+02 -.29479465845E+02 -.28777421917E+02 -.27506164178E+02
 -.25737162157E+02 -.19117106312E+02 -.16378819806E+02 -.13018285644E+02 -.99806008466E+01
 -.71843820239E+01 -.33575359696E+01 0.21317526722E+00 0.14278718423E+01 0.16048425692E+01
 0.15057486562E+01 0.17022598324E+01 0.17467742563E+01 0.14434572189E+01 0.80570639567E+00
 0.26822144104E+00 0.71045651729E-01 -.31684608710E+00 -.11376101472E+01 -.24424787706E+01
 -.38309877369E+01 -.51589937936E+01 -.60861695615E+01 -.66094119988E+01 -.65717218394E+01
 -.61060876852E+01 -.51251536893E+01 -.39138630158E+01 -.24625695961E+01 -.12018807675E+01
 -.18179004958E+00 0.31771833187E-01 0.20746503257E+00 0.84825806230E+00 0.14532608994E+01
 0.16626610696E+01 0.17997645177E+01 0.14214695141E+01 0.17029634499E+01 0.13746966622E+01
 0.25488566275E+00 -.33161345548E+01 -.73588390486E+01 -.97851092484E+01 -.13211235486E+02
 -.16336985651E+02 -.19111952612E+02 -.21216572329E+02 -.23039581901E+02 -.24382373668E+02
 -.25330622922E+02 -.25833780476E+02 -.25813471705E+02 -.25259660527E+02 -.24333509282E+02
 -.22896752796E+02 -.21189206047E+02 -.13784137903E+02 -.11032383272E+02 -.86358518820E+01
 -.57387352183E+01 -.19899383242E+01 0.82415115873E+00 0.15926157516E+01 0.17159280349E+01
 0.16152159170E+01 0.18300390560E+01 0.17727011953E+01 0.14434571906E+01 0.71619865735E+00
 0.21117352427E+00 -.39554501474E-01 -.53726717911E+00 -.17424667142E+01 -.34619474582E+01
 -.53754209230E+01 -.71028745840E+01 -.85028442980E+01 -.93297120610E+01 -.96621786919E+01
 -.93226027817E+01 -.84634832401E+01 -.70619312084E+01 -.53768548653E+01 -.35008688204E+01
 -.18190291181E+01 -.47097494607E+00 0.12418238447E-01 0.11493648249E+00 0.79952065662E+00
 0.14409217842E+01 0.17238358620E+01 0.18637175004E+01 0.15621923725E+01 0.17088766251E+01
 0.16403189495E+01 0.67538690754E+00 -.17072680278E+01 -.60444499754E+01 -.84226378787E+01
 -.11052740697E+02 -.13910019548E+02 -.16392085161E+02 -.18375579434E+02 -.19908884433E+02
 -.20996168434E+02 -.21631347895E+02 -.21884551758E+02 -.21653463307E+02 -.21042310202E+02
 -.19991604005E+02 -.18562206424E+02 -.16452199829E+02 -.91361369505E+01 -.68465158530E+01
 -.37203549680E+01 -.40767167397E+00 0.13800004026E+01 0.17789409204E+01 0.18004737837E+01
 0.17768288435E+01 0.19808054200E+01 0.18829820137E+01 0.15323913147E+01 0.80570632137E+00
 0.21117346519E+00 -.45324782087E-01 -.68759762069E+00 -.21380011417E+01 -.42826501622E+01
 -.65867818667E+01 -.87783519007E+01 -.10580498459E+02 -.11878957708E+02 -.12554713854E+02
 -.12562217927E+02 -.11862381347E+02 -.10572058205E+02 -.87137874626E+01 -.65606272839E+01
 -.42727854787E+01 -.22368251039E+01 -.65129134702E+00 0.66157706207E-02 0.10668847305E+00
 0.87236910053E+00 0.15148005312E+01 0.18778389385E+01 0.20000503908E+01 0.18037319124E+01
 0.17160515546E+01 0.19409437507E+01 0.11177480766E+01 -.22079224718E+00 -.37159576056E+01
 -.71115567333E+01 -.87930255053E+01 -.11105616740E+02 -.13314029372E+02 -.15255001614E+02
 -.16572923661E+02 -.17548245169E+02 -.17931029799E+02 -.17989154726E+02 -.17512787209E+02
 -.16540967697E+02 -.15055440872E+02 -.13156876142E+02 -.11082494873E+02 -.43221369380E+01
 -.13559809158E+01 0.89325828866E+00 0.17502072308E+01 0.19182404128E+01 0.19729908802E+01
 0.20265153184E+01 0.22822855713E+01 0.20763704710E+01 0.17560865601E+01 0.96871862221E+00
 0.26822128713E+00 -.39554624897E-01 -.68759763782E+00 -.23041940961E+01 -.47074310698E+01
 -.73768834629E+01 -.99561878580E+01 -.12214695899E+02 -.13954413068E+02 -.15056521925E+02
 -.15429778010E+02 -.15067114627E+02 -.13973388219E+02 -.12216117432E+02 -.99323898157E+01
 -.73332769875E+01 -.46824136843E+01 -.23795878775E+01 -.65579848172E+00 0.24664430198E-01
 0.18305553467E+00 0.10524816409E+01 0.16935219457E+01 0.20953629553E+01 0.22271558064E+01
 0.20971978668E+01 0.18491564598E+01 0.20675008145E+01 0.17191577381E+01 0.70456620593E+00
 -.10245490582E+01 -.44804983388E+01 -.71385628888E+01 -.84963087446E+01 -.99115426288E+01
 -.11247650915E+02 -.12383343214E+02 -.13038644966E+02 -.13290921685E+02 -.13014755866E+02
 -.12365192586E+02 -.11372857647E+02 -.10110773136E+02 -.86961228127E+01 -.68736211908E+01
 0.63687839049E+00 0.16881043061E+01 0.19973825914E+01 0.21388672145E+01 0.22244535622E+01
 0.23638885923E+01 0.25924703147E+01 0.23099095683E+01 0.19986223142E+01 0.12520518867E+01
 0.41562949498E+00 0.71045392274E-01 -.53726725264E+00 -.21380010324E+01 -.47074309573E+01
 -.76332627193E+01 -.10591927849E+02 -.13235684655E+02 -.15431461955E+02 -.16931520401E+02
 -.17753417890E+02 -.17744813369E+02 -.16987638493E+02 -.15436024318E+02 -.13282861713E+02
 -.10553524524E+02 -.76232174518E+01 -.46669341276E+01 -.22378431871E+01 -.48315414628E+00
 0.54611610617E-01 0.37703826058E+00 0.13310749093E+01 0.19512043580E+01 0.23802062703E+01
 0.25123401019E+01 0.24603706147E+01 0.21172355035E+01 0.21176371152E+01 0.21741380263E+01
 0.15133319670E+01 0.55298721227E+00 -.10191252317E+01 -.37402886006E+01 -.61064243629E+01
 -.74640038043E+01 -.83415955513E+01 -.88962447690E+01 -.92324520018E+01 -.92305519532E+01
 -.89589445619E+01 -.83213038529E+01 -.72995046095E+01 -.58155258669E+01 -.37439687883E+01
 -.13503849842E+01 0.20751339729E+01 0.22457498714E+01 0.23751901422E+01 0.25174815995E+01
 0.27527106720E+01 0.29336077995E+01 0.26388836775E+01 0.23407182259E+01 0.16639258388E+01
 0.70550725480E+00 0.18890114039E+00 -.31684625508E+00 -.17424665635E+01 -.42826498426E+01
 -.73768831677E+01 -.10591927663E+02 -.13587711403E+02 -.16171592109E+02 -.18111554029E+02
 -.19346105505E+02 -.19753373351E+02 -.19341302862E+02 -.18151521627E+02 -.16206237645E+02
 -.13624729487E+02 -.10579135673E+02 -.73436977297E+01 -.42606114662E+01 -.18013203809E+01
 -.22858582685E+00 0.13531124244E+00 0.69251019006E+00 0.16971234503E+01 0.22727835230E+01
 0.27278054661E+01 0.28470601748E+01 0.28420725778E+01 0.25519085184E+01 0.22456266606E+01
 0.23253728282E+01 0.22149842115E+01 0.15528342930E+01 0.76593900801E+00 -.18337892593E+00
 -.16897204283E+01 -.33402640096E+01 -.44997436825E+01 -.51859606027E+01 -.53548516046E+01
 -.51354746279E+01 -.44600323527E+01 -.33857480129E+01 -.19702868012E+01 -.37338481829E+00
 0.94876475386E+00 0.17481517739E+01 0.25295860916E+01 0.26799596786E+01 0.29591973410E+01
 0.32505038462E+01 0.33044821352E+01 0.30307004826E+01 0.27099141329E+01 0.20853435010E+01
 0.11270494477E+01 0.35617657778E+00 -.46069154694E-01 -.11376100655E+01 -.34619470129E+01
 -.65867813060E+01 -.99561873365E+01 -.13235684258E+02 -.16171591904E+02 -.18518761428E+02
 -.20156709563E+02 -.20972783343E+02 -.20965445885E+02 -.20162441441E+02 -.18538704633E+02
 -.16204197358E+02 -.13275320103E+02 -.99531179327E+01 -.65630427972E+01 -.34855209569E+01
 -.11840788026E+01 0.35150466082E-01 0.27446639397E+00 0.11875039871E+01 0.20809664772E+01
 0.26865854520E+01 0.30746206687E+01 0.32504939144E+01 0.32216195131E+01 0.30436646881E+01
 0.26754529681E+01 0.23728048896E+01 0.24421002118E+01 0.23302565351E+01 0.19033140846E+01
 0.12869660503E+01 0.84142373427E+00 0.39570360107E+00 -.68246923871E-01 -.36166048334E+00
 -.39839335160E+00 -.12703611206E+00 0.38299894415E+00 0.97986203254E+00 0.15692399768E+01
 0.19136357047E+01 0.21642143918E+01 0.23351923219E+01 0.31463709720E+01 0.34980543131E+01
 0.37131286580E+01 0.36168288926E+01 0.34417985956E+01 0.31271679578E+01 0.25351261868E+01
 0.17234531092E+01 0.69189107730E+00 0.18640939003E+00 -.52572306473E+00 -.24424783290E+01
 -.53754201905E+01 -.87783511007E+01 -.12214695143E+02 -.15431461337E+02 -.18111553597E+02
 -.20156709354E+02 -.21373325504E+02 -.21803002581E+02 -.21380109667E+02 -.20145437956E+02
 -.18131220298E+02 -.15462918449E+02 -.12220967729E+02 -.87723110849E+01 -.53323896493E+01
 -.24867877227E+01 -.48396933460E+00 0.18629549703E+00 0.64532250392E+00 0.17427615009E+01
 0.25214026507E+01 0.31163515121E+01 0.34751603973E+01 0.36457872911E+01 0.36473779855E+01
 0.34885552381E+01 0.32405796911E+01 0.28428912099E+01 0.25167737414E+01 0.24657258800E+01
 0.24521262316E+01 0.23479027899E+01 0.20501164931E+01 0.17829134683E+01 0.16604485113E+01
 0.16308546508E+01 0.17155150063E+01 0.18297254550E+01 0.19938779643E+01 0.21605504570E+01
 0.22969652689E+01 0.24930927087E+01 0.26680484402E+01 0.28567927921E+01 0.40048086997E+01
 0.40666361973E+01 0.40021835949E+01 0.39084513142E+01 0.36082989047E+01 0.29829052816E+01
 0.23386436528E+01 0.12067946850E+01 0.40916230603E+00 -.38500778063E-01 -.13285797618E+01
 -.38309869794E+01 -.71028735932E+01 -.10580497418E+02 -.13954412091E+02 -.16931519576E+02
 -.19346104892E+02 -.20972782953E+02 -.21803002393E+02 -.21790238432E+02 -.20952133250E+02
 -.19341253463E+02 -.16969325052E+02 -.13981686913E+02 -.10596223934E+02 -.70876280085E+01
 -.38570255963E+01 -.13612800739E+01 0.28095605491E-01 0.36843046106E+00 0.12552847209E+01
 0.23054199761E+01 0.29993356447E+01 0.35709178510E+01 0.38708387408E+01 0.40667570687E+01
 0.40483564532E+01 0.39695704737E+01 0.37214330582E+01 0.34830348037E+01 0.31083466522E+01
 0.27729648606E+01 0.25488262904E+01 0.24654380705E+01 0.24712331596E+01 0.24937946925E+01
 0.24381919541E+01 0.24341465383E+01 0.24189007042E+01 0.24929138794E+01 0.25623584628E+01
 0.26850910328E+01 0.28663049911E+01 0.30664837754E+01 0.33744160699E+01 0.37419627366E+01
 0.44188096268E+01 0.44567176479E+01 0.43253811344E+01 0.39940393694E+01 0.34467013621E+01
 0.28828569896E+01 0.19245046322E+01 0.86107763766E+00 0.29342860877E+00 -.39689778609E+00
 -.22496528667E+01 -.51589927531E+01 -.85028431064E+01 -.11878956470E+02 -.15056520761E+02
 -.17753416889E+02 -.19753372574E+02 -.20965445326E+02 -.21380109325E+02 -.20952133092E+02
 -.19754241789E+02 -.17728387512E+02 -.15087240361E+02 -.11897110731E+02 -.84791987289E+01
 -.51161409062E+01 -.23037183827E+01 -.37224556786E+00 0.28894063330E+00 0.81709825256E+00
 0.19950374500E+01 0.28249013550E+01 0.35346531947E+01 0.39799467914E+01 0.43126677857E+01
 0.44390676983E+01 0.44850924898E+01 0.43805299346E+01 0.42427426922E+01 0.39969080690E+01
 0.37747992318E+01 0.35110226763E+01 0.32462111857E+01 0.30181651519E+01 0.28234986292E+01
 0.27048126371E+01 0.27056784291E+01 0.27404401800E+01 0.28423664040E+01 0.29658471763E+01
 0.31600192878E+01 0.34259716286E+01 0.37007915486E+01 0.40546386205E+01 0.42855159730E+01
 0.44056276214E+01 0.48820055540E+01 0.47006219987E+01 0.43921616931E+01 0.40237602268E+01
 0.34455381476E+01 0.26443301521E+01 0.16134366215E+01 0.59660613111E+00 0.15525066608E+00
 -.88033684779E+00 -.30933200697E+01 -.60861683641E+01 -.93297106934E+01 -.12554712446E+02
 -.15429776701E+02 -.17744812247E+02 -.19341301965E+02 -.20162440767E+02 -.20145437487E+02
 -.19341253171E+02 -.17728387390E+02 -.15465805041E+02 -.12578748585E+02 -.93572258980E+01
 -.60758852231E+01 -.31061006205E+01 -.89269468051E+00 0.20935312696E+00 0.54995606239E+00
 0.16257075726E+01 0.26344896356E+01 0.34098737267E+01 0.40076016488E+01 0.44299325389E+01
 0.46978897378E+01 0.48380661526E+01 0.48637626876E+01 0.48099767325E+01 0.46801596599E+01
 0.45266136522E+01 0.43258190112E+01 0.41351927114E+01 0.39720969317E+01 0.38257179667E+01
 0.37558332496E+01 0.37188842258E+01 0.36984525040E+01 0.37467487000E+01 0.38465450400E+01
 0.40117766221E+01 0.42067228571E+01 0.43821188622E+01 0.45776635874E+01 0.46548485322E+01
 0.47588878727E+01 0.48577361452E+01 0.50375460374E+01 0.48466419292E+01 0.45080131270E+01
 0.39598355259E+01 0.32144859865E+01 0.24480364242E+01 0.12442906677E+01 0.48888827192E+00
 0.13507446525E-01 -.12899097540E+01 -.36607224103E+01 -.66094106727E+01 -.96621772237E+01
 -.12562216446E+02 -.15067113237E+02 -.16987637292E+02 -.18151520640E+02 -.18538703868E+02
 -.18131219739E+02 -.16969324686E+02 -.15087240143E+02 -.12578748498E+02 -.96524689145E+01
 -.65919810285E+01 -.36411198209E+01 -.13470478186E+01 0.75945113284E-01 0.43133162842E+00
 0.12947612804E+01 0.24280105621E+01 0.32562741306E+01 0.39681672900E+01 0.44686509094E+01
 0.48481426024E+01 0.50733373182E+01 0.52028883459E+01 0.52317373901E+01 0.51925511045E+01
 0.51063357655E+01 0.49737068154E+01 0.48469120236E+01 0.47083387590E+01 0.45791291135E+01
 0.44863191951E+01 0.43946161046E+01 0.43588625656E+01 0.43982001107E+01 0.44632642713E+01
 0.45664482330E+01 0.46730884305E+01 0.47923661997E+01 0.49427336391E+01 0.50468802166E+01
 0.52177694782E+01 0.52745862318E+01 0.52068445028E+01 0.52666210452E+01 0.49041036630E+01
 0.44424724580E+01 0.38732798226E+01 0.31722452815E+01 0.22023867070E+01 0.10737595192E+01
 0.40668413320E+00 -.11804688596E+00 -.15338633653E+01 -.38741123515E+01 -.65717205076E+01
 -.93226012913E+01 -.11862379835E+02 -.13973386806E+02 -.15436023100E+02 -.16206236640E+02
 -.16204196573E+02 -.15462917856E+02 -.13981686504E+02 -.11897110482E+02 -.93572257814E+01
 -.65919809837E+01 -.38326687095E+01 -.16001347771E+01 -.57524204395E-01 0.38715495190E+00
 0.10512976033E+01 0.22286947264E+01 0.31092968743E+01 0.38915285754E+01 0.44606068481E+01
 0.49215686954E+01 0.52223680096E+01 0.54344997245E+01 0.55356369858E+01 0.55718666165E+01
 0.55455466711E+01 0.54785104246E+01 0.53942373440E+01 0.52890490920E+01 0.51913084376E+01
 0.51171537026E+01 0.50508019786E+01 0.50493046924E+01 0.50598188137E+01 0.50750251247E+01
 0.51313591323E+01 0.52053799567E+01 0.53145776744E+01 0.54317155206E+01 0.55082368917E+01
 0.56008382071E+01 0.55487102915E+01 0.55035762247E+01 0.54214671645E+01 0.52903293663E+01
 0.49374200067E+01 0.44790163201E+01 0.37853793008E+01 0.29739988499E+01 0.20568770078E+01
 0.91326652685E+00 0.38311193552E+00 -.14826447099E+00 -.15479220859E+01 -.36795362171E+01
 -.61060864101E+01 -.84634818330E+01 -.10572056786E+02 -.12216116097E+02 -.13282860547E+02
 -.13624728512E+02 -.13275319340E+02 -.12220967167E+02 -.10596223561E+02 -.84791984997E+01
 -.60758851100E+01 -.36411197949E+01 -.16001347862E+01 -.11090818005E+00 0.36816631064E+00
 0.91659758365E+00 0.20731948097E+01 0.29935926236E+01 0.38036650880E+01 0.44312406580E+01
 0.49433434617E+01 0.53118177010E+01 0.55816786718E+01 0.57508697854E+01 0.58440304972E+01
 0.58782510963E+01 0.58608677784E+01 0.58219513846E+01 0.57494569539E+01 0.56908383417E+01
 0.56193721328E+01 0.55690456079E+01 0.55319488753E+01 0.55029174978E+01 0.54969732029E+01
 0.55551786943E+01 0.56017407535E+01 0.56846341168E+01 0.57327309640E+01 0.57885811759E+01
 0.58362252728E+01 0.58301206212E+01 0.58568930086E+01 0.57897109612E+01 0.55810507369E+01
 0.53905432200E+01 0.49281878616E+01 0.43742018316E+01 0.37157325751E+01 0.29773358380E+01
 0.19612570368E+01 0.90529042655E+00 0.37677290055E+00 -.10424732112E+00 -.12896974962E+01
 -.31266146048E+01 -.51251526020E+01 -.70619299796E+01 -.87137862090E+01 -.99323886296E+01
 -.10553523500E+02 -.10579134837E+02 -.99531172985E+01 -.87723106265E+01 -.70876277171E+01
 -.51161407585E+01 -.31061005933E+01 -.13470478440E+01 -.57524260342E-01 0.36816628150E+00
 0.87405872784E+00 0.19879929282E+01 0.29135652594E+01 0.37327410418E+01 0.43940491731E+01
 0.49419668411E+01 0.53562918495E+01 0.56751919309E+01 0.58951801989E+01 0.60393331227E+01
 0.61206201341E+01 0.61497790503E+01 0.61478401074E+01 0.61109474240E+01 0.60783214482E+01
 0.60192134763E+01 0.59862276230E+01 0.59494541384E+01 0.59360906754E+01 0.59520906272E+01
 0.59821332716E+01 0.59950506130E+01 0.60386190804E+01 0.60729613557E+01 0.61302915600E+01
 0.61735190194E+01 0.61694437542E+01 0.61688900067E+01 0.60261714837E+01 0.58649412997E+01
 0.56654708276E+01 0.53572786405E+01 0.49271345314E+01 0.44080676188E+01 0.36836417006E+01
 0.28611227391E+01 0.19727049744E+01 0.90420849035E+00 0.40033219341E+00 0.50435354177E-01
 -.87192543847E+00 -.23052922538E+01 -.39138621991E+01 -.53768539455E+01 -.65606263441E+01
 -.73332760960E+01 -.76232166762E+01 -.73436970999E+01 -.65630423442E+01 -.53323893700E+01
 -.38570254825E+01 -.23037183824E+01 -.89269476038E+00 0.75944991478E-01 0.38715484844E+00
 0.91659754207E+00 0.19879929077E+01 0.28870346885E+01 0.36950928547E+01 0.43675029912E+01
 0.49299539760E+01 0.53775912007E+01 0.57284062735E+01 0.59894132590E+01 0.61716182334E+01
 0.62949752934E+01 0.63612419195E+01 0.63942286342E+01 0.63882127399E+01 0.63815156050E+01
 0.63393442275E+01 0.63270645009E+01 0.62869021073E+01 0.62796529404E+01 0.62655948313E+01
 0.62623971767E+01 0.62629348473E+01 0.63116523490E+01 0.63349724612E+01 0.63789116691E+01
 0.63793827629E+01 0.63692439389E+01 0.63453327426E+01 0.62502503426E+01 0.61791486952E+01
 0.60240234565E+01 0.57291796915E+01 0.54140287484E+01 0.49124987267E+01 0.43312979156E+01
 0.36834747470E+01 0.29642586847E+01 0.20730475558E+01 0.10663000060E+01 0.45036267067E+00
 0.18210041031E+00 -.35171300795E+00 -.13423981917E+01 -.24625691648E+01 -.35008682725E+01
 -.42727849148E+01 -.46824131551E+01 -.46669337094E+01 -.42606111826E+01 -.34855208246E+01
 -.24867877105E+01 -.13612801700E+01 -.37224574159E+00 0.20935290817E+00 0.43133146871E+00
 0.10512975223E+01 0.20731947628E+01 0.29135652297E+01 0.36950928461E+01 0.43547878170E+01
 0.49218625223E+01 0.53841396084E+01 0.57577902584E+01 0.60445826023E+01 0.62606353381E+01
 0.64133821537E+01 0.65143015288E+01 0.65734529850E+01 0.66008628438E+01 0.66102625566E+01
 0.65944837757E+01 0.65882548425E+01 0.65590670446E+01 0.65540357477E+01 0.65418384401E+01
 0.65450456631E+01 0.65640526969E+01 0.65908351044E+01 0.65881155379E+01 0.66071200575E+01
 0.66046993104E+01 0.66088829149E+01 0.65980685157E+01 0.65238885873E+01 0.64593745121E+01
 0.62523546659E+01 0.60160135451E+01 0.57496235832E+01 0.53592074523E+01 0.49281098195E+01
 0.43969457059E+01 0.37387690727E+01 0.29481539826E+01 0.22231636755E+01 0.12711848865E+01
 0.54663449262E+00 0.29036762208E+00 0.24854154496E-01 -.49103655798E+00 -.12018808077E+01
 -.18190290485E+01 -.22368250224E+01 -.23795878265E+01 -.22378431956E+01 -.18013204609E+01
 -.11840789712E+01 -.48396959421E+00 0.28095279061E-01 0.28894032097E+00 0.54995585619E+00
 0.12947611635E+01 0.22286946370E+01 0.29935925591E+01 0.37327410054E+01 0.43675029726E+01
 0.49218625174E+01 0.53875544543E+01 0.57682899069E+01 0.60757305506E+01 0.63116605233E+01
 0.64919542924E+01 0.66152786808E+01 0.67051033703E+01 0.67518901302E+01 0.67856160304E+01
 0.67862502779E+01 0.67943271862E+01 0.67759448981E+01 0.67801991200E+01 0.67642089357E+01
 0.67664987294E+01 0.67652402967E+01 0.67625158533E+01 0.67581779588E+01 0.67872978178E+01
 0.67830442692E+01 0.67870738256E+01 0.67486092275E+01 0.66815747056E+01 0.66097914681E+01
 0.64465507195E+01 0.63177143198E+01 0.61051927979E+01 0.57745492248E+01 0.54095757278E+01
 0.49257930706E+01 0.43626744365E+01 0.37958364449E+01 0.31609914211E+01 0.24241220840E+01