       N       E                     dE             d eps       ncg     rms          rms(c)
DAV:   1    -0.112415156134E+04   -0.11242E+04   -0.96006E+03  6799   0.177E+03
DAV:   2    -0.115973984732E+04   -0.35588E+02   -0.34885E+02  8229   0.123E+02
DAV:   3    -0.116086211048E+04   -0.11223E+01   -0.11221E+01  9022   0.309E+01
DAV:   4    -0.116086780382E+04   -0.56933E-02   -0.56924E-02  9334   0.190E+00
DAV:   5    -0.102467818961E+02    0.11506E+04   -0.16476E+01  6851   0.623E+01    0.426E+00
DAV:   6    -0.101694159833E+02    0.77366E-01   -0.83399E-01  7566   0.817E+00    0.317E+00
DAV:   7    -0.101454764169E+02    0.23940E-01   -0.18138E-01  7826   0.220E+00    0.216E+00
DAV:   8    -0.101404252726E+02    0.50511E-02   -0.22725E-02  8996   0.802E-01    0.127E+00
DAV:   9    -0.101371756399E+02    0.32496E-02   -0.20658E-03  9113   0.326E-01    0.728E-01
DAV:  10    -0.101360852436E+02    0.10904E-02   -0.10635E-03  8411   0.177E-01    0.386E-01
DAV:  11    -0.101358691975E+02    0.21605E-03   -0.43283E-04  8723   0.117E-01    0.197E-01
DAV:  12    -0.101358547913E+02    0.14406E-04   -0.12286E-04  8645   0.773E-02    0.102E-01
DAV:  13    -0.101358754628E+02   -0.20672E-04   -0.42944E-05  8788   0.468E-02    0.540E-02
DAV:  14    -0.101358958918E+02   -0.20429E-04   -0.18359E-05  8606   0.276E-02    0.294E-02
DAV:  15    -0.101359098621E+02   -0.13970E-04   -0.81356E-06  8502   0.172E-02    0.167E-02
DAV:  16    -0.101359180879E+02   -0.82258E-05   -0.36627E-06  8411   0.113E-02    0.100E-02
DAV:  17    -0.101359226157E+02   -0.45279E-05   -0.16809E-06  8034   0.751E-03    0.644E-03
DAV:  18    -0.101359250116E+02   -0.23958E-05   -0.79562E-07  8450   0.511E-03    0.433E-03
DAV:  19    -0.101359262510E+02   -0.12394E-05   -0.38094E-07  8190   0.350E-03    0.298E-03
DAV:  20    -0.101359268800E+02   -0.62905E-06   -0.18505E-07  8450   0.243E-03    0.208E-03
DAV:  21    -0.101359271952E+02   -0.31519E-06   -0.90161E-08  8515   0.169E-03    0.144E-03
DAV:  22    -0.101359273515E+02   -0.15627E-06   -0.44139E-08  8320   0.118E-03    0.998E-04
DAV:  23    -0.101359274279E+02   -0.76462E-07   -0.21521E-08  6695   0.834E-04
   1 F= -.10135927E+02 E0= -.10135927E+02  d E =-.101359E+02
       N       E                     dE             d eps       ncg     rms          rms(c)
DAV:   1    -0.107963629512E+02   -0.66044E+00   -0.95643E+00  6825   0.545E+01    0.475E+00
DAV:   2    -0.103300174146E+02    0.46635E+00   -0.46683E-01  7579   0.207E+01    0.251E+00
DAV:   3    -0.102048215253E+02    0.12520E+00   -0.16483E-01  6760   0.836E+00    0.127E+00
DAV:   4    -0.101709221272E+02    0.33899E-01   -0.25532E-02  8216   0.216E+00    0.694E-01
DAV:   5    -0.101592890029E+02    0.11633E-01   -0.43533E-03  7839   0.640E-01    0.413E-01
DAV:   6    -0.101549875846E+02    0.43014E-02   -0.61169E-04  7722   0.286E-01    0.254E-01
DAV:   7    -0.101533616317E+02    0.16260E-02   -0.15080E-04  7670   0.173E-01    0.159E-01
DAV:   8    -0.101527559921E+02    0.60564E-03   -0.61721E-05  7280   0.108E-01    0.996E-02
DAV:   9    -0.101525326267E+02    0.22337E-03   -0.24846E-05  7072   0.659E-02    0.630E-02
DAV:  10    -0.101524504097E+02    0.82217E-04   -0.89409E-06  7280   0.388E-02    0.400E-02
DAV:  11    -0.101524201611E+02    0.30249E-04   -0.31405E-06  7228   0.229E-02    0.254E-02
DAV:  12    -0.101524090704E+02    0.11091E-04   -0.12247E-06  7280   0.141E-02    0.162E-02
DAV:  13    -0.101524050301E+02    0.40403E-05   -0.47785E-07  7670   0.871E-03    0.102E-02
DAV:  14    -0.101524035704E+02    0.14597E-05   -0.19224E-07  7072   0.548E-03    0.651E-03
DAV:  15    -0.101524030474E+02    0.52302E-06   -0.68833E-08  4628   0.343E-03    0.408E-03
DAV:  16    -0.101524028635E+02    0.18391E-06   -0.39729E-08  3614   0.245E-03    0.261E-03
DAV:  17    -0.101524028002E+02    0.63257E-07   -0.15958E-08  3692   0.157E-03
   2 F= -.10152403E+02 E0= -.10152403E+02  d E =-.164754E-01
       N       E                     dE             d eps       ncg     rms          rms(c)
DAV:   1    -0.102224743377E+02   -0.70071E-01   -0.10601E+00  6773   0.203E+01    0.148E+00
DAV:   2    -0.101770477246E+02    0.45427E-01   -0.35691E-02  8112   0.448E+00    0.809E-01
DAV:   3    -0.101632845330E+02    0.13763E-01   -0.16513E-02  6760   0.252E+00    0.412E-01
DAV:   4    -0.101596251927E+02    0.36593E-02   -0.28375E-03  8216   0.780E-01    0.223E-01
DAV:   5    -0.101583957392E+02    0.12295E-02   -0.48874E-04  7527   0.238E-01    0.132E-01
DAV:   6    -0.101579445164E+02    0.45122E-03   -0.72792E-05  7722   0.980E-02    0.807E-02
DAV:   7    -0.101577740247E+02    0.17049E-03   -0.16133E-05  7358   0.553E-02    0.505E-02
DAV:   8    -0.101577102240E+02    0.63801E-04   -0.63083E-06  7202   0.341E-02    0.315E-02
DAV:   9    -0.101576865464E+02    0.23678E-04   -0.25556E-06  7046   0.210E-02    0.199E-02
DAV:  10    -0.101576777633E+02    0.87831E-05   -0.94664E-07  7228   0.125E-02    0.126E-02
DAV:  11    -0.101576744954E+02    0.32679E-05   -0.33433E-07  7280   0.738E-03    0.800E-03
DAV:  12    -0.101576732771E+02    0.12183E-05   -0.13092E-07  6838   0.451E-03    0.508E-03
DAV:  13    -0.101576728210E+02    0.45611E-06   -0.43432E-08  3536   0.280E-03    0.314E-03
DAV:  14    -0.101576726495E+02    0.17154E-06   -0.29952E-08  3536   0.207E-03    0.202E-03
DAV:  15    -0.101576725847E+02    0.64768E-07   -0.95601E-09  3458   0.130E-03
   3 F= -.10157673E+02 E0= -.10157673E+02  d E =-.217452E-01
