 vasp.6.1.0 28Jan20 (build Jun 21 2024 05:31:27) complex                         
 executed on              LinuxNV date 2024.07.05  11:50:40
 running    8 mpi-ranks, with    1 threads/rank
 distrk:  each k-point on    1 cores,    8 groups
 distr:  one band on NCORE=   1 cores,    1 groups


--------------------------------------------------------------------------------------------------------


 INCAR:
 POTCAR:    PAW_PBE Ga_d 06Jul2010                
 POTCAR:    PAW_PBE As 22Sep2009                  
 POTCAR:    PAW_PBE Ga_d 06Jul2010                
   SHA256 =  a60ddf36e14f00ea098d9e3914b3745f1b7105e68786148f49ae384e44b4226c Ga_d/POTCAR           
   COPYR  = (c) Copyright 06Jul2010 Georg Kresse                                                    
   COPYR  = This file is part of the software VASP. Any use, copying, and all other rights are regul
   COPYR  = If you do not have a valid VASP license, you may not use, copy or distribute this file. 
   VRHFIN =Ga: s2p1                                                                                 
   LEXCH  = PE                                                                                      
   EATOM  =  2148.8298 eV,  157.9345 Ry                                                             
                                                                                                    
   TITEL  = PAW_PBE Ga_d 06Jul2010                                                                  
   LULTRA =        F    use ultrasoft PP ?                                                          
   IUNSCR =        1    unscreen: 0-lin 1-nonlin 2-no                                               
   RPACOR =    1.700    partial core radius                                                         
   POMASS =   69.723; ZVAL   =   13.000    mass and valenz                                          
   RCORE  =    2.300    outmost cutoff radius                                                       
   RWIGS  =    2.300; RWIGS  =    1.217    wigner-seitz radius (au A)                               
   ENMAX  =  282.691; ENMIN  =  212.018 eV                                                          
   ICORE  =        3    local potential                                                             
   LCOR   =        T    correct aug charges                                                         
   LPAW   =        T    paw PP                                                                      
   EAUG   =  490.690                                                                                
   DEXC   =    0.000                                                                                
   RMAX   =    2.341    core radius for proj-oper                                                   
   RAUG   =    1.300    factor for augmentation sphere                                              
   RDEP   =    2.413    radius for radial grids                                                     
   RDEPT  =    1.856    core radius for aug-charge                                                  
                                                                                                    
   Atomic configuration                                                                             
    9 entries                                                                                       
     n  l   j            E        occ.                                                              
     1  0  0.50    -10228.7831   2.0000                                                             
     2  0  0.50     -1262.1604   2.0000                                                             
     2  1  1.50     -1098.6333   6.0000                                                             
     3  0  0.50      -148.1110   2.0000                                                             
     3  1  1.50       -98.8436   6.0000                                                             
     3  2  2.50       -19.1549  10.0000                                                             
     4  0  0.50        -8.9483   2.0000                                                             
     4  1  0.50        -2.5791   1.0000                                                             
     4  3  2.50        -2.7416   0.0000                                                             
   Description                                                                                      
     l       E           TYP  RCUT    TYP  RCUT                                                     
     2    -19.1549037     23  2.300                                                                 
     2     -5.4423304     23  2.300                                                                 
     0     -8.9483111     23  2.300                                                                 
     0     68.0291300     23  2.300                                                                 
     1     -2.5790802     23  2.100                                                                 
     1     81.6349560     23  2.300                                                                 
     3      6.8029130     23  2.300                                                                 
  local pseudopotential read in
  partial core-charges read in
  partial kinetic energy density read in
  atomic valenz-charges read in
  non local Contribution for L=            2  read in
    real space projection operators read in
  non local Contribution for L=            2  read in
    real space projection operators read in
  non local Contribution for L=            0  read in
    real space projection operators read in
  non local Contribution for L=            0  read in
    real space projection operators read in
  non local Contribution for L=            1  read in
    real space projection operators read in
  non local Contribution for L=            1  read in
    real space projection operators read in
    PAW grid and wavefunctions read in
 
   number of l-projection  operators is LMAX  =            6
   number of lm-projection operators is LMMAX =           18
 
 POTCAR:    PAW_PBE As 22Sep2009                  
   SHA256 =  bc8fb55b00baa90d383a523722e1771deb40ea3f17a5ce25913641995975acad As/POTCAR             
   COPYR  = (c) Copyright 22Sep2009 Georg Kresse                                                    
   COPYR  = This file is part of the software VASP. Any use, copying, and all other rights are regul
   COPYR  = If you do not have a valid VASP license, you may not use, copy or distribute this file. 
   VRHFIN =As: s2p3                                                                                 
   LEXCH  = PE                                                                                      
   EATOM  =   170.1867 eV,   12.5084 Ry                                                             
                                                                                                    
   TITEL  = PAW_PBE As 22Sep2009                                                                    
   LULTRA =        F    use ultrasoft PP ?                                                          
   IUNSCR =        1    unscreen: 0-lin 1-nonlin 2-no                                               
   RPACOR =    1.900    partial core radius                                                         
   POMASS =   74.922; ZVAL   =    5.000    mass and valenz                                          
   RCORE  =    2.100    outmost cutoff radius                                                       
   RWIGS  =    2.300; RWIGS  =    1.217    wigner-seitz radius (au A)                               
   ENMAX  =  208.702; ENMIN  =  156.526 eV                                                          
   ICORE  =        3    local potential                                                             
   LCOR   =        T    correct aug charges                                                         
   LPAW   =        T    paw PP                                                                      
   EAUG   =  462.758                                                                                
   DEXC   =    0.000                                                                                
   RMAX   =    2.144    core radius for proj-oper                                                   
   RAUG   =    1.300    factor for augmentation sphere                                              
   RDEP   =    2.140    radius for radial grids                                                     
   RDEPT  =    1.956    core radius for aug-charge                                                  
                                                                                                    
   Atomic configuration                                                                             
   10 entries                                                                                       
     n  l   j            E        occ.                                                              
     1  0  0.50    -11718.0418   2.0000                                                             
     2  0  0.50     -1486.5454   2.0000                                                             
     2  1  1.50     -1303.3889   6.0000                                                             
     3  0  0.50      -190.2849   2.0000                                                             
     3  1  1.50      -133.6555   6.0000                                                             
     3  2  2.50       -40.6443  10.0000                                                             
     4  0  0.50       -14.4936   2.0000                                                             
     4  1  0.50        -5.1947   3.0000                                                             
     4  2  1.50        -5.4423   0.0000                                                             
     4  3  2.50        -5.4423   0.0000                                                             
   Description                                                                                      
     l       E           TYP  RCUT    TYP  RCUT                                                     
     0    -14.4935570     23  2.100                                                                 
     0    -11.9212055     23  2.100                                                                 
     1     -5.1947127     23  2.100                                                                 
     1     27.2116520     23  2.100                                                                 
     2     -5.4423304     23  2.100                                                                 
     3     -1.3605826      7  2.100                                                                 
  local pseudopotential read in
  partial core-charges read in
  partial kinetic energy density read in
  atomic valenz-charges read in
  non local Contribution for L=            0  read in
    real space projection operators read in
  non local Contribution for L=            0  read in
    real space projection operators read in
  non local Contribution for L=            1  read in
    real space projection operators read in
  non local Contribution for L=            1  read in
    real space projection operators read in
  non local Contribution for L=            2  read in
    real space projection operators read in
    PAW grid and wavefunctions read in
 
   number of l-projection  operators is LMAX  =            5
   number of lm-projection operators is LMMAX =           13
 
  PAW_PBE Ga_d 06Jul2010                :
 energy of atom  1       EATOM=-2148.8298
 kinetic energy error for atom=    0.0102 (will be added to EATOM!!)
  PAW_PBE As 22Sep2009                  :
 energy of atom  2       EATOM= -170.1867
 kinetic energy error for atom=    0.0013 (will be added to EATOM!!)
 
 
 POSCAR: Ga1 As1
  positions in direct lattice
  No initial velocities read in
 exchange correlation table for  LEXCH =        8
   RHO(1)=    0.500       N(1)  =     2000
   RHO(2)=  100.500       N(2)  =     4000
 


--------------------------------------------------------------------------------------------------------


 ion  position               nearest neighbor table
   1  0.000  0.000  0.000-   2 2.49   2 2.49   2 2.49   2 2.49
   2  0.250  0.250  0.250-   1 2.49   1 2.49   1 2.49   1 2.49
 

IMPORTANT INFORMATION: All symmetrisations will be switched off!
NOSYMM: (Re-)initialisation of all symmetry stuff for point group C_1.


----------------------------------------------------------------------------------------

                                     Primitive cell                                     

  volume of cell :      47.5319

  direct lattice vectors                    reciprocal lattice vectors
     0.000000000  2.875091050  2.875091050    -0.173907536  0.173907536  0.173907536
     2.875091050  0.000000000  2.875091050     0.173907536 -0.173907536  0.173907536
     2.875091050  2.875091050  0.000000000     0.173907536  0.173907536 -0.173907536

  length of vectors
     4.065992755  4.065992755  4.065992755     0.301216688  0.301216688  0.301216688

  position of ions in fractional coordinates (direct lattice)
     0.000000000  0.000000000  0.000000000
     0.250000000  0.250000000  0.250000000

  ion indices of the primitive-cell ions
   primitive index   ion index
                 1           1
                 2           2

----------------------------------------------------------------------------------------

 
 
 KPOINTS: Num irrep kpoints: 47                   

Automatic generation of k-mesh.
Space group operators:
 irot       det(A)        alpha          n_x          n_y          n_z        tau_x        tau_y        tau_z
    1     1.000000     0.000000     1.000000     0.000000     0.000000     0.000000     0.000000     0.000000
 
 Subroutine IBZKPT returns following result:
 ===========================================
 
 Found    260 irreducible k-points:
 
 Following reciprocal coordinates:
            Coordinates               Weight
  0.000000  0.000000  0.000000      1.000000
  0.125000  0.000000  0.000000      2.000000
  0.000000  0.125000  0.000000      2.000000
  0.000000  0.000000  0.125000      2.000000
  0.125000  0.125000  0.125000      2.000000
  0.250000  0.000000  0.000000      2.000000
  0.000000  0.250000  0.000000      2.000000
  0.000000  0.000000  0.250000      2.000000
  0.250000  0.250000  0.250000      2.000000
  0.375000  0.000000  0.000000      2.000000
  0.000000  0.375000  0.000000      2.000000
  0.000000  0.000000  0.375000      2.000000
  0.375000  0.375000  0.375000      2.000000
  0.500000  0.000000  0.000000      1.000000
  0.000000  0.500000  0.000000      1.000000
  0.000000  0.000000  0.500000      1.000000
  0.500000  0.500000  0.500000      1.000000
  0.125000  0.125000  0.000000      2.000000
  0.000000  0.125000  0.125000      2.000000
  0.125000  0.000000  0.125000      2.000000
  0.250000  0.125000  0.000000      2.000000
  0.000000  0.250000  0.125000      2.000000
  0.125000  0.000000  0.250000      2.000000
  0.125000  0.125000 -0.125000      2.000000
  0.250000  0.125000  0.250000      2.000000
  0.125000  0.250000  0.000000      2.000000
  0.125000 -0.125000 -0.125000      2.000000
  0.250000  0.250000  0.125000      2.000000
  0.000000  0.125000  0.250000      2.000000
 -0.125000  0.125000 -0.125000      2.000000
  0.125000  0.250000  0.250000      2.000000
  0.250000  0.000000  0.125000      2.000000
  0.375000  0.125000  0.000000      2.000000
  0.000000  0.375000  0.125000      2.000000
  0.125000  0.000000  0.375000      2.000000
  0.125000  0.125000 -0.250000      2.000000
  0.375000  0.250000  0.375000      2.000000
  0.125000  0.375000  0.000000      2.000000
  0.250000 -0.125000 -0.125000      2.000000
  0.375000  0.375000  0.250000      2.000000
  0.000000  0.125000  0.375000      2.000000
 -0.125000  0.250000 -0.125000      2.000000
  0.250000  0.375000  0.375000      2.000000
  0.375000  0.000000  0.125000      2.000000
  0.500000  0.125000  0.000000      2.000000
  0.000000  0.500000  0.125000      2.000000
  0.125000  0.000000  0.500000      2.000000
  0.125000  0.125000 -0.375000      2.000000
  0.500000  0.375000  0.500000      2.000000
  0.125000  0.500000  0.000000      2.000000
  0.375000 -0.125000 -0.125000      2.000000
  0.500000  0.500000  0.375000      2.000000
  0.000000  0.125000  0.500000      2.000000
 -0.125000  0.375000 -0.125000      2.000000
  0.375000  0.500000  0.500000      2.000000
  0.500000  0.000000  0.125000      2.000000
 -0.375000  0.125000  0.000000      2.000000
  0.000000 -0.375000  0.125000      2.000000
  0.125000  0.000000 -0.375000      2.000000
  0.125000  0.125000  0.500000      2.000000
 -0.375000  0.500000 -0.375000      2.000000
  0.125000 -0.375000  0.000000      2.000000
  0.500000 -0.125000 -0.125000      2.000000
 -0.375000 -0.375000  0.500000      2.000000
  0.000000  0.125000 -0.375000      2.000000
 -0.125000  0.500000 -0.125000      2.000000
  0.500000 -0.375000 -0.375000      2.000000
 -0.375000  0.000000  0.125000      2.000000
 -0.250000  0.125000  0.000000      2.000000
  0.000000 -0.250000  0.125000      2.000000
  0.125000  0.000000 -0.250000      2.000000
  0.125000  0.125000  0.375000      2.000000
 -0.250000 -0.375000 -0.250000      2.000000
  0.125000 -0.250000  0.000000      2.000000
 -0.375000 -0.125000 -0.125000      2.000000
 -0.250000 -0.250000 -0.375000      2.000000
  0.000000  0.125000 -0.250000      2.000000
 -0.125000 -0.375000 -0.125000      2.000000
 -0.375000 -0.250000 -0.250000      2.000000
 -0.250000  0.000000  0.125000      2.000000
 -0.125000  0.125000  0.000000      2.000000
  0.000000 -0.125000  0.125000      2.000000
  0.125000  0.000000 -0.125000      2.000000
  0.125000  0.125000  0.250000      2.000000
 -0.125000 -0.250000 -0.125000      2.000000
 -0.250000 -0.125000 -0.125000      2.000000
  0.250000  0.250000  0.000000      2.000000
  0.000000  0.250000  0.250000      2.000000
  0.250000  0.000000  0.250000      2.000000
  0.375000  0.250000  0.000000      2.000000
  0.000000  0.375000  0.250000      2.000000
  0.250000  0.000000  0.375000      2.000000
  0.250000  0.250000 -0.125000      2.000000
  0.375000  0.125000  0.375000      2.000000
  0.250000  0.375000  0.000000      2.000000
  0.125000 -0.250000 -0.250000      2.000000
  0.375000  0.375000  0.125000      2.000000
  0.000000  0.250000  0.375000      2.000000
 -0.250000  0.125000 -0.250000      2.000000
  0.125000  0.375000  0.375000      2.000000
  0.375000  0.000000  0.250000      2.000000
  0.500000  0.250000  0.000000      2.000000
  0.000000  0.500000  0.250000      2.000000
  0.250000  0.000000  0.500000      2.000000
  0.250000  0.250000 -0.250000      2.000000
  0.500000  0.250000  0.500000      2.000000
  0.250000  0.500000  0.000000      2.000000
  0.250000 -0.250000 -0.250000      2.000000
  0.500000  0.500000  0.250000      2.000000
  0.000000  0.250000  0.500000      2.000000
 -0.250000  0.250000 -0.250000      2.000000
  0.250000  0.500000  0.500000      2.000000
  0.500000  0.000000  0.250000      2.000000
 -0.375000  0.250000  0.000000      2.000000
  0.000000 -0.375000  0.250000      2.000000
  0.250000  0.000000 -0.375000      2.000000
  0.250000  0.250000 -0.375000      2.000000
 -0.375000  0.375000 -0.375000      2.000000
  0.250000 -0.375000  0.000000      2.000000
  0.375000 -0.250000 -0.250000      2.000000
 -0.375000 -0.375000  0.375000      2.000000
  0.000000  0.250000 -0.375000      2.000000
 -0.250000  0.375000 -0.250000      2.000000
  0.375000 -0.375000 -0.375000      2.000000
 -0.375000  0.000000  0.250000      2.000000
 -0.250000  0.250000  0.000000      2.000000
  0.000000 -0.250000  0.250000      2.000000
  0.250000  0.000000 -0.250000      2.000000
  0.250000  0.250000  0.500000      2.000000
 -0.250000  0.500000 -0.250000      2.000000
  0.500000 -0.250000 -0.250000      2.000000
  0.375000  0.375000  0.000000      2.000000
  0.000000  0.375000  0.375000      2.000000
  0.375000  0.000000  0.375000      2.000000
  0.500000  0.375000  0.000000      2.000000
  0.000000  0.500000  0.375000      2.000000
  0.375000  0.000000  0.500000      2.000000
  0.375000  0.375000 -0.125000      2.000000
  0.500000  0.125000  0.500000      2.000000
  0.375000  0.500000  0.000000      2.000000
  0.125000 -0.375000 -0.375000      2.000000
  0.500000  0.500000  0.125000      2.000000
  0.000000  0.375000  0.500000      2.000000
 -0.375000  0.125000 -0.375000      2.000000
  0.125000  0.500000  0.500000      2.000000
  0.500000  0.000000  0.375000      2.000000
 -0.375000  0.375000  0.000000      2.000000
  0.000000 -0.375000  0.375000      2.000000
  0.375000  0.000000 -0.375000      2.000000
  0.375000  0.375000 -0.250000      2.000000
 -0.375000  0.250000 -0.375000      2.000000
  0.250000 -0.375000 -0.375000      2.000000
  0.500000  0.500000  0.000000      1.000000
  0.000000  0.500000  0.500000      1.000000
  0.500000  0.000000  0.500000      1.000000
  0.375000  0.250000  0.125000      2.000000
  0.125000  0.375000  0.250000      2.000000
  0.250000  0.125000  0.375000      2.000000
  0.250000  0.125000 -0.125000      2.000000
  0.375000  0.125000  0.250000      2.000000
  0.125000 -0.250000 -0.125000      2.000000
  0.125000  0.250000 -0.125000      2.000000
  0.125000 -0.125000 -0.250000      2.000000
  0.250000  0.375000  0.125000      2.000000
 -0.125000  0.125000 -0.250000      2.000000
 -0.250000  0.125000 -0.125000      2.000000
  0.125000  0.250000  0.375000      2.000000
  0.500000  0.250000  0.125000      2.000000
  0.125000  0.500000  0.250000      2.000000
  0.250000  0.125000  0.500000      2.000000
  0.250000  0.125000 -0.250000      2.000000
  0.500000  0.250000  0.375000      2.000000
  0.125000 -0.375000 -0.125000      2.000000
  0.125000  0.375000 -0.125000      2.000000
  0.250000 -0.125000 -0.250000      2.000000
 -0.375000 -0.250000  0.500000      2.000000
  0.375000  0.500000  0.250000      2.000000
 -0.125000  0.125000 -0.375000      2.000000
 -0.250000  0.250000  0.125000      2.000000
 -0.125000  0.125000  0.375000      2.000000
 -0.250000  0.250000 -0.125000      2.000000
  0.500000 -0.375000 -0.250000      2.000000
  0.250000  0.375000  0.500000      2.000000
 -0.375000 -0.125000  0.125000      2.000000
  0.125000 -0.250000  0.250000      2.000000
  0.375000 -0.125000  0.125000      2.000000
 -0.125000 -0.250000  0.250000      2.000000
 -0.250000  0.500000 -0.375000      2.000000
  0.500000 -0.125000 -0.250000      2.000000
 -0.250000  0.500000 -0.125000      2.000000
 -0.125000 -0.250000  0.500000      2.000000
 -0.375000  0.250000  0.125000      2.000000
  0.125000 -0.375000  0.250000      2.000000
  0.250000  0.125000 -0.375000      2.000000
 -0.375000  0.375000  0.500000      2.000000
  0.125000  0.500000 -0.125000      2.000000
  0.375000 -0.125000 -0.250000      2.000000
  0.500000 -0.375000  0.375000      2.000000
 -0.125000  0.125000  0.500000      2.000000
 -0.250000  0.375000 -0.125000      2.000000
  0.375000  0.500000 -0.375000      2.000000
  0.500000 -0.125000  0.125000      2.000000
 -0.125000 -0.250000  0.375000      2.000000
  0.500000  0.375000  0.125000      2.000000
  0.125000  0.500000  0.375000      2.000000
  0.375000  0.125000  0.500000      2.000000
  0.375000  0.250000 -0.125000      2.000000
  0.500000  0.125000  0.375000      2.000000
  0.125000 -0.375000 -0.250000      2.000000
  0.250000  0.375000 -0.125000      2.000000
  0.125000 -0.250000 -0.375000      2.000000
  0.375000  0.500000  0.125000      2.000000
 -0.250000  0.125000 -0.375000      2.000000
 -0.375000  0.125000 -0.250000      2.000000
  0.125000  0.375000  0.500000      2.000000
 -0.375000  0.375000  0.125000      2.000000
  0.125000 -0.375000  0.375000      2.000000
  0.375000  0.125000 -0.375000      2.000000
  0.375000  0.250000 -0.250000      2.000000
 -0.375000  0.250000  0.500000      2.000000
  0.125000  0.500000 -0.250000      2.000000
  0.250000  0.500000 -0.125000      2.000000
  0.250000 -0.250000 -0.375000      2.000000
  0.500000 -0.250000  0.375000      2.000000
  0.500000 -0.375000  0.250000      2.000000
 -0.250000  0.125000  0.500000      2.000000
 -0.250000  0.375000  0.250000      2.000000
 -0.125000  0.250000  0.500000      2.000000
 -0.375000  0.250000 -0.250000      2.000000
  0.375000  0.500000 -0.250000      2.000000
  0.250000  0.500000 -0.375000      2.000000
  0.500000 -0.250000  0.125000      2.000000
  0.250000 -0.250000  0.375000      2.000000
  0.500000 -0.125000  0.250000      2.000000
 -0.250000 -0.375000  0.250000      2.000000
 -0.250000  0.375000  0.500000      2.000000
  0.375000 -0.125000 -0.375000      2.000000
 -0.375000  0.375000 -0.125000      2.000000
 -0.125000 -0.375000  0.375000      2.000000
 -0.250000  0.375000  0.125000      2.000000
  0.125000 -0.250000  0.375000      2.000000
  0.375000  0.125000 -0.250000      2.000000
  0.375000  0.250000 -0.375000      2.000000
 -0.250000  0.375000 -0.375000      2.000000
  0.125000  0.375000 -0.250000      2.000000
  0.375000 -0.250000 -0.375000      2.000000
  0.375000 -0.375000  0.250000      2.000000
 -0.250000  0.125000  0.375000      2.000000
 -0.375000  0.375000  0.250000      2.000000
  0.250000  0.375000 -0.375000      2.000000
  0.375000 -0.250000  0.125000      2.000000
 -0.375000  0.500000  0.125000      2.000000
  0.125000 -0.375000  0.500000      2.000000
  0.500000  0.125000 -0.375000      2.000000
  0.500000  0.375000 -0.125000      2.000000
 -0.375000  0.125000  0.500000      2.000000
  0.125000  0.500000 -0.375000      2.000000
 -0.250000  0.500000  0.250000      2.000000
  0.250000 -0.250000  0.500000      2.000000
  0.500000  0.250000 -0.250000      2.000000
 
 Following cartesian coordinates:
            Coordinates               Weight
  0.000000  0.000000  0.000000      1.000000
 -0.021738  0.021738  0.021738      2.000000
  0.021738 -0.021738  0.021738      2.000000
  0.021738  0.021738 -0.021738      2.000000
  0.021738  0.021738  0.021738      2.000000
 -0.043477  0.043477  0.043477      2.000000
  0.043477 -0.043477  0.043477      2.000000
  0.043477  0.043477 -0.043477      2.000000
  0.043477  0.043477  0.043477      2.000000
 -0.065215  0.065215  0.065215      2.000000
  0.065215 -0.065215  0.065215      2.000000
  0.065215  0.065215 -0.065215      2.000000
  0.065215  0.065215  0.065215      2.000000
 -0.086954  0.086954  0.086954      1.000000
  0.086954 -0.086954  0.086954      1.000000
  0.086954  0.086954 -0.086954      1.000000
  0.086954  0.086954  0.086954      1.000000
  0.000000  0.000000  0.043477      2.000000
  0.043477  0.000000  0.000000      2.000000
  0.000000  0.043477  0.000000      2.000000
 -0.021738  0.021738  0.065215      2.000000
  0.065215 -0.021738  0.021738      2.000000
  0.021738  0.065215 -0.021738      2.000000
 -0.021738 -0.021738  0.065215      2.000000
  0.021738  0.065215  0.021738      2.000000
  0.021738 -0.021738  0.065215      2.000000
 -0.065215  0.021738  0.021738      2.000000
  0.021738  0.021738  0.065215      2.000000
  0.065215  0.021738 -0.021738      2.000000
  0.021738 -0.065215  0.021738      2.000000
  0.065215  0.021738  0.021738      2.000000
 -0.021738  0.065215  0.021738      2.000000
 -0.043477  0.043477  0.086954      2.000000
  0.086954 -0.043477  0.043477      2.000000
  0.043477  0.086954 -0.043477      2.000000
 -0.043477 -0.043477  0.086954      2.000000
  0.043477  0.086954  0.043477      2.000000
  0.043477 -0.043477  0.086954      2.000000
 -0.086954  0.043477  0.043477      2.000000
  0.043477  0.043477  0.086954      2.000000
  0.086954  0.043477 -0.043477      2.000000
  0.043477 -0.086954  0.043477      2.000000
  0.086954  0.043477  0.043477      2.000000
 -0.043477  0.086954  0.043477      2.000000
 -0.065215  0.065215  0.108692      2.000000
  0.108692 -0.065215  0.065215      2.000000
  0.065215  0.108692 -0.065215      2.000000
 -0.065215 -0.065215  0.108692      2.000000
  0.065215  0.108692  0.065215      2.000000
  0.065215 -0.065215  0.108692      2.000000
 -0.108692  0.065215  0.065215      2.000000
  0.065215  0.065215  0.108692      2.000000
  0.108692  0.065215 -0.065215      2.000000
  0.065215 -0.108692  0.065215      2.000000
  0.108692  0.065215  0.065215      2.000000
 -0.065215  0.108692  0.065215      2.000000
  0.086954 -0.086954 -0.043477      2.000000
 -0.043477  0.086954 -0.086954      2.000000
 -0.086954 -0.043477  0.086954      2.000000
  0.086954  0.086954 -0.043477      2.000000
  0.086954 -0.217384  0.086954      2.000000
 -0.086954  0.086954 -0.043477      2.000000
 -0.130431  0.086954  0.086954      2.000000
  0.086954  0.086954 -0.217384      2.000000
 -0.043477 -0.086954  0.086954      2.000000
  0.086954 -0.130431  0.086954      2.000000
 -0.217384  0.086954  0.086954      2.000000
  0.086954 -0.043477 -0.086954      2.000000
  0.065215 -0.065215 -0.021738      2.000000
 -0.021738  0.065215 -0.065215      2.000000
 -0.065215 -0.021738  0.065215      2.000000
  0.065215  0.065215 -0.021738      2.000000
 -0.065215 -0.021738 -0.065215      2.000000
 -0.065215  0.065215 -0.021738      2.000000
  0.021738 -0.065215 -0.065215      2.000000
 -0.065215 -0.065215 -0.021738      2.000000
 -0.021738 -0.065215  0.065215      2.000000
 -0.065215  0.021738 -0.065215      2.000000
 -0.021738 -0.065215 -0.065215      2.000000
  0.065215 -0.021738 -0.065215      2.000000
  0.043477 -0.043477  0.000000      2.000000
  0.000000  0.043477 -0.043477      2.000000
 -0.043477  0.000000  0.043477      2.000000
  0.043477  0.043477  0.000000      2.000000
 -0.043477  0.000000 -0.043477      2.000000
  0.000000 -0.043477 -0.043477      2.000000
  0.000000  0.000000  0.086954      2.000000
  0.086954  0.000000  0.000000      2.000000
  0.000000  0.086954  0.000000      2.000000
 -0.021738  0.021738  0.108692      2.000000
  0.108692 -0.021738  0.021738      2.000000
  0.021738  0.108692 -0.021738      2.000000
 -0.021738 -0.021738  0.108692      2.000000
  0.021738  0.108692  0.021738      2.000000
  0.021738 -0.021738  0.108692      2.000000
 -0.108692  0.021738  0.021738      2.000000
  0.021738  0.021738  0.108692      2.000000
  0.108692  0.021738 -0.021738      2.000000
  0.021738 -0.108692  0.021738      2.000000
  0.108692  0.021738  0.021738      2.000000
 -0.021738  0.108692  0.021738      2.000000
 -0.043477  0.043477  0.130431      2.000000
  0.130431 -0.043477  0.043477      2.000000
  0.043477  0.130431 -0.043477      2.000000
 -0.043477 -0.043477  0.130431      2.000000
  0.043477  0.130431  0.043477      2.000000
  0.043477 -0.043477  0.130431      2.000000
 -0.130431  0.043477  0.043477      2.000000
  0.043477  0.043477  0.130431      2.000000
  0.130431  0.043477 -0.043477      2.000000
  0.043477 -0.130431  0.043477      2.000000
  0.130431  0.043477  0.043477      2.000000
 -0.043477  0.130431  0.043477      2.000000
  0.108692 -0.108692 -0.021738      2.000000
 -0.021738  0.108692 -0.108692      2.000000
 -0.108692 -0.021738  0.108692      2.000000
 -0.065215 -0.065215  0.152169      2.000000
  0.065215 -0.195646  0.065215      2.000000
 -0.108692  0.108692 -0.021738      2.000000
 -0.152169  0.065215  0.065215      2.000000
  0.065215  0.065215 -0.195646      2.000000
 -0.021738 -0.108692  0.108692      2.000000
  0.065215 -0.152169  0.065215      2.000000
 -0.195646  0.065215  0.065215      2.000000
  0.108692 -0.021738 -0.108692      2.000000
  0.086954 -0.086954  0.000000      2.000000
  0.000000  0.086954 -0.086954      2.000000
 -0.086954  0.000000  0.086954      2.000000
  0.086954  0.086954  0.000000      2.000000
  0.086954 -0.173908  0.086954      2.000000
 -0.173908  0.086954  0.086954      2.000000
  0.000000  0.000000  0.130431      2.000000
  0.130431  0.000000  0.000000      2.000000
  0.000000  0.130431  0.000000      2.000000
 -0.021738  0.021738  0.152169      2.000000
  0.152169 -0.021738  0.021738      2.000000
  0.021738  0.152169 -0.021738      2.000000
 -0.021738 -0.021738  0.152169      2.000000
  0.021738  0.152169  0.021738      2.000000
  0.021738 -0.021738  0.152169      2.000000
 -0.152169  0.021738  0.021738      2.000000
  0.021738  0.021738  0.152169      2.000000
  0.152169  0.021738 -0.021738      2.000000
  0.021738 -0.152169  0.021738      2.000000
  0.152169  0.021738  0.021738      2.000000
 -0.021738  0.152169  0.021738      2.000000
  0.130431 -0.130431  0.000000      2.000000
  0.000000  0.130431 -0.130431      2.000000
 -0.130431  0.000000  0.130431      2.000000
 -0.043477 -0.043477  0.173908      2.000000
  0.043477 -0.173908  0.043477      2.000000
 -0.173908  0.043477  0.043477      2.000000
  0.000000  0.000000  0.173908      1.000000
  0.173908  0.000000  0.000000      1.000000
  0.000000  0.173908  0.000000      1.000000
  0.000000  0.043477  0.086954      2.000000
  0.086954  0.000000  0.043477      2.000000
  0.043477  0.086954  0.000000      2.000000
 -0.043477  0.000000  0.086954      2.000000
  0.000000  0.086954  0.043477      2.000000
 -0.086954  0.043477  0.000000      2.000000
  0.000000 -0.043477  0.086954      2.000000
 -0.086954  0.000000  0.043477      2.000000
  0.043477  0.000000  0.086954      2.000000
  0.000000 -0.086954  0.043477      2.000000
  0.043477 -0.086954  0.000000      2.000000
  0.086954  0.043477  0.000000      2.000000
 -0.021738  0.065215  0.108692      2.000000
  0.108692 -0.021738  0.065215      2.000000
  0.065215  0.108692 -0.021738      2.000000
 -0.065215 -0.021738  0.108692      2.000000
  0.021738  0.108692  0.065215      2.000000
 -0.108692  0.065215 -0.021738      2.000000
  0.021738 -0.065215  0.108692      2.000000
 -0.108692  0.021738  0.065215      2.000000
  0.108692  0.065215 -0.195646      2.000000
  0.065215  0.021738  0.108692      2.000000
 -0.021738 -0.108692  0.065215      2.000000
  0.108692 -0.065215 -0.021738      2.000000
  0.108692  0.021738 -0.065215      2.000000
  0.065215 -0.108692  0.021738      2.000000
 -0.195646  0.108692  0.065215      2.000000
  0.108692  0.065215  0.021738      2.000000
  0.065215 -0.021738 -0.108692      2.000000
 -0.021738  0.108692 -0.065215      2.000000
 -0.065215  0.108692  0.021738      2.000000
  0.021738  0.065215 -0.108692      2.000000
  0.065215 -0.195646  0.108692      2.000000
 -0.152169  0.065215  0.108692      2.000000
  0.108692 -0.152169  0.065215      2.000000
  0.065215  0.108692 -0.152169      2.000000
  0.130431 -0.086954 -0.043477      2.000000
 -0.043477  0.130431 -0.086954      2.000000
 -0.086954 -0.043477  0.130431      2.000000
  0.217384 -0.043477 -0.086954      2.000000
  0.043477 -0.086954  0.130431      2.000000
 -0.130431  0.043477  0.086954      2.000000
 -0.086954  0.217384 -0.043477      2.000000
  0.130431  0.043477 -0.086954      2.000000
  0.086954 -0.130431  0.043477      2.000000
 -0.043477 -0.086954  0.217384      2.000000
 -0.086954  0.130431  0.043477      2.000000
  0.043477  0.086954 -0.130431      2.000000
  0.000000  0.043477  0.130431      2.000000
  0.130431  0.000000  0.043477      2.000000
  0.043477  0.130431  0.000000      2.000000
 -0.043477  0.000000  0.130431      2.000000
  0.000000  0.130431  0.043477      2.000000
 -0.130431  0.043477  0.000000      2.000000
  0.000000 -0.043477  0.130431      2.000000
 -0.130431  0.000000  0.043477      2.000000
  0.043477  0.000000  0.130431      2.000000
  0.000000 -0.130431  0.043477      2.000000
  0.043477 -0.130431  0.000000      2.000000
  0.130431  0.043477  0.000000      2.000000
  0.152169 -0.108692 -0.021738      2.000000
 -0.021738  0.152169 -0.108692      2.000000
 -0.108692 -0.021738  0.152169      2.000000
 -0.065215 -0.021738  0.152169      2.000000
  0.195646 -0.021738 -0.108692      2.000000
  0.021738 -0.108692  0.152169      2.000000
  0.021738 -0.065215  0.152169      2.000000
 -0.152169  0.021738  0.065215      2.000000
 -0.065215  0.195646 -0.021738      2.000000
 -0.108692  0.195646 -0.021738      2.000000
  0.152169  0.021738 -0.108692      2.000000
  0.152169 -0.065215 -0.021738      2.000000
  0.152169  0.021738 -0.065215      2.000000
  0.065215 -0.152169  0.021738      2.000000
 -0.021738 -0.065215  0.195646      2.000000
 -0.021738 -0.108692  0.195646      2.000000
 -0.108692  0.152169  0.021738      2.000000
 -0.021738  0.152169 -0.065215      2.000000
 -0.065215  0.152169  0.021738      2.000000
  0.021738  0.065215 -0.152169      2.000000
  0.195646 -0.021738 -0.065215      2.000000
 -0.152169  0.021738  0.108692      2.000000
  0.108692 -0.152169  0.021738      2.000000
  0.021738  0.108692 -0.152169      2.000000
  0.130431 -0.086954  0.000000      2.000000
  0.000000  0.130431 -0.086954      2.000000
 -0.086954  0.000000  0.130431      2.000000
 -0.086954 -0.043477  0.173908      2.000000
  0.043477 -0.173908  0.086954      2.000000
  0.000000 -0.086954  0.130431      2.000000
 -0.173908  0.043477  0.086954      2.000000
 -0.086954  0.173908 -0.043477      2.000000
  0.130431  0.000000 -0.086954      2.000000
  0.173908 -0.086954 -0.043477      2.000000
 -0.043477 -0.086954  0.173908      2.000000
 -0.086954  0.130431  0.000000      2.000000
  0.173908 -0.130431  0.000000      2.000000
  0.000000  0.173908 -0.130431      2.000000
 -0.130431  0.000000  0.173908      2.000000
 -0.043477  0.000000  0.173908      2.000000
  0.173908  0.000000 -0.130431      2.000000
  0.000000 -0.130431  0.173908      2.000000
  0.173908 -0.086954  0.000000      2.000000
  0.000000  0.173908 -0.086954      2.000000
 -0.086954  0.000000  0.173908      2.000000
 
 
 Subroutine IBZKPT_HF returns following result:
 ==============================================
 
 Found    512 k-points in 1st BZ
 the following    512 k-points will be used (e.g. in the exchange kernel)
 Following reciprocal coordinates:   # in IRBZ
  0.000000  0.000000  0.000000    0.00195313   1 t-inv F
  0.125000  0.000000  0.000000    0.00195313   2 t-inv F
  0.000000  0.125000  0.000000    0.00195313   3 t-inv F
  0.000000  0.000000  0.125000    0.00195313   4 t-inv F
  0.125000  0.125000  0.125000    0.00195313   5 t-inv F
  0.250000  0.000000  0.000000    0.00195313   6 t-inv F
  0.000000  0.250000  0.000000    0.00195313   7 t-inv F
  0.000000  0.000000  0.250000    0.00195313   8 t-inv F
  0.250000  0.250000  0.250000    0.00195313   9 t-inv F
  0.375000  0.000000  0.000000    0.00195313  10 t-inv F
  0.000000  0.375000  0.000000    0.00195313  11 t-inv F
  0.000000  0.000000  0.375000    0.00195313  12 t-inv F
  0.375000  0.375000  0.375000    0.00195313  13 t-inv F
  0.500000  0.000000  0.000000    0.00195313  14 t-inv F
  0.000000  0.500000  0.000000    0.00195313  15 t-inv F
  0.000000  0.000000  0.500000    0.00195313  16 t-inv F
  0.500000  0.500000  0.500000    0.00195313  17 t-inv F
  0.125000  0.125000  0.000000    0.00195313  18 t-inv F
  0.000000  0.125000  0.125000    0.00195313  19 t-inv F
  0.125000  0.000000  0.125000    0.00195313  20 t-inv F
  0.250000  0.125000  0.000000    0.00195313  21 t-inv F
  0.000000  0.250000  0.125000    0.00195313  22 t-inv F
  0.125000  0.000000  0.250000    0.00195313  23 t-inv F
  0.125000  0.125000 -0.125000    0.00195313  24 t-inv F
  0.250000  0.125000  0.250000    0.00195313  25 t-inv F
  0.125000  0.250000  0.000000    0.00195313  26 t-inv F
  0.125000 -0.125000 -0.125000    0.00195313  27 t-inv F
  0.250000  0.250000  0.125000    0.00195313  28 t-inv F
  0.000000  0.125000  0.250000    0.00195313  29 t-inv F
 -0.125000  0.125000 -0.125000    0.00195313  30 t-inv F
  0.125000  0.250000  0.250000    0.00195313  31 t-inv F
  0.250000  0.000000  0.125000    0.00195313  32 t-inv F
  0.375000  0.125000  0.000000    0.00195313  33 t-inv F
  0.000000  0.375000  0.125000    0.00195313  34 t-inv F
  0.125000  0.000000  0.375000    0.00195313  35 t-inv F
  0.125000  0.125000 -0.250000    0.00195313  36 t-inv F
  0.375000  0.250000  0.375000    0.00195313  37 t-inv F
  0.125000  0.375000  0.000000    0.00195313  38 t-inv F
  0.250000 -0.125000 -0.125000    0.00195313  39 t-inv F
  0.375000  0.375000  0.250000    0.00195313  40 t-inv F
  0.000000  0.125000  0.375000    0.00195313  41 t-inv F
 -0.125000  0.250000 -0.125000    0.00195313  42 t-inv F
  0.250000  0.375000  0.375000    0.00195313  43 t-inv F
  0.375000  0.000000  0.125000    0.00195313  44 t-inv F
  0.500000  0.125000  0.000000    0.00195313  45 t-inv F
  0.000000  0.500000  0.125000    0.00195313  46 t-inv F
  0.125000  0.000000  0.500000    0.00195313  47 t-inv F
  0.125000  0.125000 -0.375000    0.00195313  48 t-inv F
  0.500000  0.375000  0.500000    0.00195313  49 t-inv F
  0.125000  0.500000  0.000000    0.00195313  50 t-inv F
  0.375000 -0.125000 -0.125000    0.00195313  51 t-inv F
  0.500000  0.500000  0.375000    0.00195313  52 t-inv F
  0.000000  0.125000  0.500000    0.00195313  53 t-inv F
 -0.125000  0.375000 -0.125000    0.00195313  54 t-inv F
  0.375000  0.500000  0.500000    0.00195313  55 t-inv F
  0.500000  0.000000  0.125000    0.00195313  56 t-inv F
 -0.375000  0.125000  0.000000    0.00195313  57 t-inv F
  0.000000 -0.375000  0.125000    0.00195313  58 t-inv F
  0.125000  0.000000 -0.375000    0.00195313  59 t-inv F
  0.125000  0.125000  0.500000    0.00195313  60 t-inv F
 -0.375000  0.500000 -0.375000    0.00195313  61 t-inv F
  0.125000 -0.375000  0.000000    0.00195313  62 t-inv F
  0.500000 -0.125000 -0.125000    0.00195313  63 t-inv F
 -0.375000 -0.375000  0.500000    0.00195313  64 t-inv F
  0.000000  0.125000 -0.375000    0.00195313  65 t-inv F
 -0.125000  0.500000 -0.125000    0.00195313  66 t-inv F
  0.500000 -0.375000 -0.375000    0.00195313  67 t-inv F
 -0.375000  0.000000  0.125000    0.00195313  68 t-inv F
 -0.250000  0.125000  0.000000    0.00195313  69 t-inv F
  0.000000 -0.250000  0.125000    0.00195313  70 t-inv F
  0.125000  0.000000 -0.250000    0.00195313  71 t-inv F
  0.125000  0.125000  0.375000    0.00195313  72 t-inv F
 -0.250000 -0.375000 -0.250000    0.00195313  73 t-inv F
  0.125000 -0.250000  0.000000    0.00195313  74 t-inv F
 -0.375000 -0.125000 -0.125000    0.00195313  75 t-inv F
 -0.250000 -0.250000 -0.375000    0.00195313  76 t-inv F
  0.000000  0.125000 -0.250000    0.00195313  77 t-inv F
 -0.125000 -0.375000 -0.125000    0.00195313  78 t-inv F
 -0.375000 -0.250000 -0.250000    0.00195313  79 t-inv F
 -0.250000  0.000000  0.125000    0.00195313  80 t-inv F
 -0.125000  0.125000  0.000000    0.00195313  81 t-inv F
  0.000000 -0.125000  0.125000    0.00195313  82 t-inv F
  0.125000  0.000000 -0.125000    0.00195313  83 t-inv F
  0.125000  0.125000  0.250000    0.00195313  84 t-inv F
 -0.125000 -0.250000 -0.125000    0.00195313  85 t-inv F
 -0.250000 -0.125000 -0.125000    0.00195313  86 t-inv F
  0.250000  0.250000  0.000000    0.00195313  87 t-inv F
  0.000000  0.250000  0.250000    0.00195313  88 t-inv F
  0.250000  0.000000  0.250000    0.00195313  89 t-inv F
  0.375000  0.250000  0.000000    0.00195313  90 t-inv F
  0.000000  0.375000  0.250000    0.00195313  91 t-inv F
  0.250000  0.000000  0.375000    0.00195313  92 t-inv F
  0.250000  0.250000 -0.125000    0.00195313  93 t-inv F
  0.375000  0.125000  0.375000    0.00195313  94 t-inv F
  0.250000  0.375000  0.000000    0.00195313  95 t-inv F
  0.125000 -0.250000 -0.250000    0.00195313  96 t-inv F
  0.375000  0.375000  0.125000    0.00195313  97 t-inv F
  0.000000  0.250000  0.375000    0.00195313  98 t-inv F
 -0.250000  0.125000 -0.250000    0.00195313  99 t-inv F
  0.125000  0.375000  0.375000    0.00195313 100 t-inv F
  0.375000  0.000000  0.250000    0.00195313 101 t-inv F
  0.500000  0.250000  0.000000    0.00195313 102 t-inv F
  0.000000  0.500000  0.250000    0.00195313 103 t-inv F
  0.250000  0.000000  0.500000    0.00195313 104 t-inv F
  0.250000  0.250000 -0.250000    0.00195313 105 t-inv F
  0.500000  0.250000  0.500000    0.00195313 106 t-inv F
  0.250000  0.500000  0.000000    0.00195313 107 t-inv F
  0.250000 -0.250000 -0.250000    0.00195313 108 t-inv F
  0.500000  0.500000  0.250000    0.00195313 109 t-inv F
  0.000000  0.250000  0.500000    0.00195313 110 t-inv F
 -0.250000  0.250000 -0.250000    0.00195313 111 t-inv F
  0.250000  0.500000  0.500000    0.00195313 112 t-inv F
  0.500000  0.000000  0.250000    0.00195313 113 t-inv F
 -0.375000  0.250000  0.000000    0.00195313 114 t-inv F
  0.000000 -0.375000  0.250000    0.00195313 115 t-inv F
  0.250000  0.000000 -0.375000    0.00195313 116 t-inv F
  0.250000  0.250000 -0.375000    0.00195313 117 t-inv F
 -0.375000  0.375000 -0.375000    0.00195313 118 t-inv F
  0.250000 -0.375000  0.000000    0.00195313 119 t-inv F
  0.375000 -0.250000 -0.250000    0.00195313 120 t-inv F
 -0.375000 -0.375000  0.375000    0.00195313 121 t-inv F
  0.000000  0.250000 -0.375000    0.00195313 122 t-inv F
 -0.250000  0.375000 -0.250000    0.00195313 123 t-inv F
  0.375000 -0.375000 -0.375000    0.00195313 124 t-inv F
 -0.375000  0.000000  0.250000    0.00195313 125 t-inv F
 -0.250000  0.250000  0.000000    0.00195313 126 t-inv F
  0.000000 -0.250000  0.250000    0.00195313 127 t-inv F
  0.250000  0.000000 -0.250000    0.00195313 128 t-inv F
  0.250000  0.250000  0.500000    0.00195313 129 t-inv F
 -0.250000  0.500000 -0.250000    0.00195313 130 t-inv F
  0.500000 -0.250000 -0.250000    0.00195313 131 t-inv F
  0.375000  0.375000  0.000000    0.00195313 132 t-inv F
  0.000000  0.375000  0.375000    0.00195313 133 t-inv F
  0.375000  0.000000  0.375000    0.00195313 134 t-inv F
  0.500000  0.375000  0.000000    0.00195313 135 t-inv F
  0.000000  0.500000  0.375000    0.00195313 136 t-inv F
  0.375000  0.000000  0.500000    0.00195313 137 t-inv F
  0.375000  0.375000 -0.125000    0.00195313 138 t-inv F
  0.500000  0.125000  0.500000    0.00195313 139 t-inv F
  0.375000  0.500000  0.000000    0.00195313 140 t-inv F
  0.125000 -0.375000 -0.375000    0.00195313 141 t-inv F
  0.500000  0.500000  0.125000    0.00195313 142 t-inv F
  0.000000  0.375000  0.500000    0.00195313 143 t-inv F
 -0.375000  0.125000 -0.375000    0.00195313 144 t-inv F
  0.125000  0.500000  0.500000    0.00195313 145 t-inv F
  0.500000  0.000000  0.375000    0.00195313 146 t-inv F
 -0.375000  0.375000  0.000000    0.00195313 147 t-inv F
  0.000000 -0.375000  0.375000    0.00195313 148 t-inv F
  0.375000  0.000000 -0.375000    0.00195313 149 t-inv F
  0.375000  0.375000 -0.250000    0.00195313 150 t-inv F
 -0.375000  0.250000 -0.375000    0.00195313 151 t-inv F
  0.250000 -0.375000 -0.375000    0.00195313 152 t-inv F
  0.500000  0.500000  0.000000    0.00195313 153 t-inv F
  0.000000  0.500000  0.500000    0.00195313 154 t-inv F
  0.500000  0.000000  0.500000    0.00195313 155 t-inv F
  0.375000  0.250000  0.125000    0.00195313 156 t-inv F
  0.125000  0.375000  0.250000    0.00195313 157 t-inv F
  0.250000  0.125000  0.375000    0.00195313 158 t-inv F
  0.250000  0.125000 -0.125000    0.00195313 159 t-inv F
  0.375000  0.125000  0.250000    0.00195313 160 t-inv F
  0.125000 -0.250000 -0.125000    0.00195313 161 t-inv F
  0.125000  0.250000 -0.125000    0.00195313 162 t-inv F
  0.125000 -0.125000 -0.250000    0.00195313 163 t-inv F
  0.250000  0.375000  0.125000    0.00195313 164 t-inv F
 -0.125000  0.125000 -0.250000    0.00195313 165 t-inv F
 -0.250000  0.125000 -0.125000    0.00195313 166 t-inv F
  0.125000  0.250000  0.375000    0.00195313 167 t-inv F
  0.500000  0.250000  0.125000    0.00195313 168 t-inv F
  0.125000  0.500000  0.250000    0.00195313 169 t-inv F
  0.250000  0.125000  0.500000    0.00195313 170 t-inv F
  0.250000  0.125000 -0.250000    0.00195313 171 t-inv F
  0.500000  0.250000  0.375000    0.00195313 172 t-inv F
  0.125000 -0.375000 -0.125000    0.00195313 173 t-inv F
  0.125000  0.375000 -0.125000    0.00195313 174 t-inv F
  0.250000 -0.125000 -0.250000    0.00195313 175 t-inv F
 -0.375000 -0.250000  0.500000    0.00195313 176 t-inv F
  0.375000  0.500000  0.250000    0.00195313 177 t-inv F
 -0.125000  0.125000 -0.375000    0.00195313 178 t-inv F
 -0.250000  0.250000  0.125000    0.00195313 179 t-inv F
 -0.125000  0.125000  0.375000    0.00195313 180 t-inv F
 -0.250000  0.250000 -0.125000    0.00195313 181 t-inv F
  0.500000 -0.375000 -0.250000    0.00195313 182 t-inv F
  0.250000  0.375000  0.500000    0.00195313 183 t-inv F
 -0.375000 -0.125000  0.125000    0.00195313 184 t-inv F
  0.125000 -0.250000  0.250000    0.00195313 185 t-inv F
  0.375000 -0.125000  0.125000    0.00195313 186 t-inv F
 -0.125000 -0.250000  0.250000    0.00195313 187 t-inv F
 -0.250000  0.500000 -0.375000    0.00195313 188 t-inv F
  0.500000 -0.125000 -0.250000    0.00195313 189 t-inv F
 -0.250000  0.500000 -0.125000    0.00195313 190 t-inv F
 -0.125000 -0.250000  0.500000    0.00195313 191 t-inv F
 -0.375000  0.250000  0.125000    0.00195313 192 t-inv F
  0.125000 -0.375000  0.250000    0.00195313 193 t-inv F
  0.250000  0.125000 -0.375000    0.00195313 194 t-inv F
 -0.375000  0.375000  0.500000    0.00195313 195 t-inv F
  0.125000  0.500000 -0.125000    0.00195313 196 t-inv F
  0.375000 -0.125000 -0.250000    0.00195313 197 t-inv F
  0.500000 -0.375000  0.375000    0.00195313 198 t-inv F
 -0.125000  0.125000  0.500000    0.00195313 199 t-inv F
 -0.250000  0.375000 -0.125000    0.00195313 200 t-inv F
  0.375000  0.500000 -0.375000    0.00195313 201 t-inv F
  0.500000 -0.125000  0.125000    0.00195313 202 t-inv F
 -0.125000 -0.250000  0.375000    0.00195313 203 t-inv F
  0.500000  0.375000  0.125000    0.00195313 204 t-inv F
  0.125000  0.500000  0.375000    0.00195313 205 t-inv F
  0.375000  0.125000  0.500000    0.00195313 206 t-inv F
  0.375000  0.250000 -0.125000    0.00195313 207 t-inv F
  0.500000  0.125000  0.375000    0.00195313 208 t-inv F
  0.125000 -0.375000 -0.250000    0.00195313 209 t-inv F
  0.250000  0.375000 -0.125000    0.00195313 210 t-inv F
  0.125000 -0.250000 -0.375000    0.00195313 211 t-inv F
  0.375000  0.500000  0.125000    0.00195313 212 t-inv F
 -0.250000  0.125000 -0.375000    0.00195313 213 t-inv F
 -0.375000  0.125000 -0.250000    0.00195313 214 t-inv F
  0.125000  0.375000  0.500000    0.00195313 215 t-inv F
 -0.375000  0.375000  0.125000    0.00195313 216 t-inv F
  0.125000 -0.375000  0.375000    0.00195313 217 t-inv F
  0.375000  0.125000 -0.375000    0.00195313 218 t-inv F
  0.375000  0.250000 -0.250000    0.00195313 219 t-inv F
 -0.375000  0.250000  0.500000    0.00195313 220 t-inv F
  0.125000  0.500000 -0.250000    0.00195313 221 t-inv F
  0.250000  0.500000 -0.125000    0.00195313 222 t-inv F
  0.250000 -0.250000 -0.375000    0.00195313 223 t-inv F
  0.500000 -0.250000  0.375000    0.00195313 224 t-inv F
  0.500000 -0.375000  0.250000    0.00195313 225 t-inv F
 -0.250000  0.125000  0.500000    0.00195313 226 t-inv F
 -0.250000  0.375000  0.250000    0.00195313 227 t-inv F
 -0.125000  0.250000  0.500000    0.00195313 228 t-inv F
 -0.375000  0.250000 -0.250000    0.00195313 229 t-inv F
  0.375000  0.500000 -0.250000    0.00195313 230 t-inv F
  0.250000  0.500000 -0.375000    0.00195313 231 t-inv F
  0.500000 -0.250000  0.125000    0.00195313 232 t-inv F
  0.250000 -0.250000  0.375000    0.00195313 233 t-inv F
  0.500000 -0.125000  0.250000    0.00195313 234 t-inv F
 -0.250000 -0.375000  0.250000    0.00195313 235 t-inv F
 -0.250000  0.375000  0.500000    0.00195313 236 t-inv F
  0.375000 -0.125000 -0.375000    0.00195313 237 t-inv F
 -0.375000  0.375000 -0.125000    0.00195313 238 t-inv F
 -0.125000 -0.375000  0.375000    0.00195313 239 t-inv F
 -0.250000  0.375000  0.125000    0.00195313 240 t-inv F
  0.125000 -0.250000  0.375000    0.00195313 241 t-inv F
  0.375000  0.125000 -0.250000    0.00195313 242 t-inv F
  0.375000  0.250000 -0.375000    0.00195313 243 t-inv F
 -0.250000  0.375000 -0.375000    0.00195313 244 t-inv F
  0.125000  0.375000 -0.250000    0.00195313 245 t-inv F
  0.375000 -0.250000 -0.375000    0.00195313 246 t-inv F
  0.375000 -0.375000  0.250000    0.00195313 247 t-inv F
 -0.250000  0.125000  0.375000    0.00195313 248 t-inv F
 -0.375000  0.375000  0.250000    0.00195313 249 t-inv F
  0.250000  0.375000 -0.375000    0.00195313 250 t-inv F
  0.375000 -0.250000  0.125000    0.00195313 251 t-inv F
 -0.375000  0.500000  0.125000    0.00195313 252 t-inv F
  0.125000 -0.375000  0.500000    0.00195313 253 t-inv F
  0.500000  0.125000 -0.375000    0.00195313 254 t-inv F
  0.500000  0.375000 -0.125000    0.00195313 255 t-inv F
 -0.375000  0.125000  0.500000    0.00195313 256 t-inv F
  0.125000  0.500000 -0.375000    0.00195313 257 t-inv F
 -0.250000  0.500000  0.250000    0.00195313 258 t-inv F
  0.250000 -0.250000  0.500000    0.00195313 259 t-inv F
  0.500000  0.250000 -0.250000    0.00195313 260 t-inv F
 -0.125000 -0.000000 -0.000000    0.00195313   2 t-inv T
 -0.000000 -0.125000 -0.000000    0.00195313   3 t-inv T
 -0.000000 -0.000000 -0.125000    0.00195313   4 t-inv T
 -0.125000 -0.125000 -0.125000    0.00195313   5 t-inv T
 -0.250000 -0.000000 -0.000000    0.00195313   6 t-inv T
 -0.000000 -0.250000 -0.000000    0.00195313   7 t-inv T
 -0.000000 -0.000000 -0.250000    0.00195313   8 t-inv T
 -0.250000 -0.250000 -0.250000    0.00195313   9 t-inv T
 -0.375000 -0.000000 -0.000000    0.00195313  10 t-inv T
 -0.000000 -0.375000 -0.000000    0.00195313  11 t-inv T
 -0.000000 -0.000000 -0.375000    0.00195313  12 t-inv T
 -0.375000 -0.375000 -0.375000    0.00195313  13 t-inv T
 -0.125000 -0.125000 -0.000000    0.00195313  18 t-inv T
 -0.000000 -0.125000 -0.125000    0.00195313  19 t-inv T
 -0.125000 -0.000000 -0.125000    0.00195313  20 t-inv T
 -0.250000 -0.125000 -0.000000    0.00195313  21 t-inv T
 -0.000000 -0.250000 -0.125000    0.00195313  22 t-inv T
 -0.125000 -0.000000 -0.250000    0.00195313  23 t-inv T
 -0.125000 -0.125000  0.125000    0.00195313  24 t-inv T
 -0.250000 -0.125000 -0.250000    0.00195313  25 t-inv T
 -0.125000 -0.250000 -0.000000    0.00195313  26 t-inv T
 -0.125000  0.125000  0.125000    0.00195313  27 t-inv T
 -0.250000 -0.250000 -0.125000    0.00195313  28 t-inv T
 -0.000000 -0.125000 -0.250000    0.00195313  29 t-inv T
  0.125000 -0.125000  0.125000    0.00195313  30 t-inv T
 -0.125000 -0.250000 -0.250000    0.00195313  31 t-inv T
 -0.250000 -0.000000 -0.125000    0.00195313  32 t-inv T
 -0.375000 -0.125000 -0.000000    0.00195313  33 t-inv T
 -0.000000 -0.375000 -0.125000    0.00195313  34 t-inv T
 -0.125000 -0.000000 -0.375000    0.00195313  35 t-inv T
 -0.125000 -0.125000  0.250000    0.00195313  36 t-inv T
 -0.375000 -0.250000 -0.375000    0.00195313  37 t-inv T
 -0.125000 -0.375000 -0.000000    0.00195313  38 t-inv T
 -0.250000  0.125000  0.125000    0.00195313  39 t-inv T
 -0.375000 -0.375000 -0.250000    0.00195313  40 t-inv T
 -0.000000 -0.125000 -0.375000    0.00195313  41 t-inv T
  0.125000 -0.250000  0.125000    0.00195313  42 t-inv T
 -0.250000 -0.375000 -0.375000    0.00195313  43 t-inv T
 -0.375000 -0.000000 -0.125000    0.00195313  44 t-inv T
 -0.500000 -0.125000 -0.000000    0.00195313  45 t-inv T
 -0.000000 -0.500000 -0.125000    0.00195313  46 t-inv T
 -0.125000 -0.000000 -0.500000    0.00195313  47 t-inv T
 -0.125000 -0.125000  0.375000    0.00195313  48 t-inv T
 -0.500000 -0.375000 -0.500000    0.00195313  49 t-inv T
 -0.125000 -0.500000 -0.000000    0.00195313  50 t-inv T
 -0.375000  0.125000  0.125000    0.00195313  51 t-inv T
 -0.500000 -0.500000 -0.375000    0.00195313  52 t-inv T
 -0.000000 -0.125000 -0.500000    0.00195313  53 t-inv T
  0.125000 -0.375000  0.125000    0.00195313  54 t-inv T
 -0.375000 -0.500000 -0.500000    0.00195313  55 t-inv T
 -0.500000 -0.000000 -0.125000    0.00195313  56 t-inv T
  0.375000 -0.125000 -0.000000    0.00195313  57 t-inv T
 -0.000000  0.375000 -0.125000    0.00195313  58 t-inv T
 -0.125000 -0.000000  0.375000    0.00195313  59 t-inv T
 -0.125000 -0.125000 -0.500000    0.00195313  60 t-inv T
  0.375000 -0.500000  0.375000    0.00195313  61 t-inv T
 -0.125000  0.375000 -0.000000    0.00195313  62 t-inv T
 -0.500000  0.125000  0.125000    0.00195313  63 t-inv T
  0.375000  0.375000 -0.500000    0.00195313  64 t-inv T
 -0.000000 -0.125000  0.375000    0.00195313  65 t-inv T
  0.125000 -0.500000  0.125000    0.00195313  66 t-inv T
 -0.500000  0.375000  0.375000    0.00195313  67 t-inv T
  0.375000 -0.000000 -0.125000    0.00195313  68 t-inv T
  0.250000 -0.125000 -0.000000    0.00195313  69 t-inv T
 -0.000000  0.250000 -0.125000    0.00195313  70 t-inv T
 -0.125000 -0.000000  0.250000    0.00195313  71 t-inv T
 -0.125000 -0.125000 -0.375000    0.00195313  72 t-inv T
  0.250000  0.375000  0.250000    0.00195313  73 t-inv T
 -0.125000  0.250000 -0.000000    0.00195313  74 t-inv T
  0.375000  0.125000  0.125000    0.00195313  75 t-inv T
  0.250000  0.250000  0.375000    0.00195313  76 t-inv T
 -0.000000 -0.125000  0.250000    0.00195313  77 t-inv T
  0.125000  0.375000  0.125000    0.00195313  78 t-inv T
  0.375000  0.250000  0.250000    0.00195313  79 t-inv T
  0.250000 -0.000000 -0.125000    0.00195313  80 t-inv T
  0.125000 -0.125000 -0.000000    0.00195313  81 t-inv T
 -0.000000  0.125000 -0.125000    0.00195313  82 t-inv T
 -0.125000 -0.000000  0.125000    0.00195313  83 t-inv T
 -0.125000 -0.125000 -0.250000    0.00195313  84 t-inv T
  0.125000  0.250000  0.125000    0.00195313  85 t-inv T
  0.250000  0.125000  0.125000    0.00195313  86 t-inv T
 -0.250000 -0.250000 -0.000000    0.00195313  87 t-inv T
 -0.000000 -0.250000 -0.250000    0.00195313  88 t-inv T
 -0.250000 -0.000000 -0.250000    0.00195313  89 t-inv T
 -0.375000 -0.250000 -0.000000    0.00195313  90 t-inv T
 -0.000000 -0.375000 -0.250000    0.00195313  91 t-inv T
 -0.250000 -0.000000 -0.375000    0.00195313  92 t-inv T
 -0.250000 -0.250000  0.125000    0.00195313  93 t-inv T
 -0.375000 -0.125000 -0.375000    0.00195313  94 t-inv T
 -0.250000 -0.375000 -0.000000    0.00195313  95 t-inv T
 -0.125000  0.250000  0.250000    0.00195313  96 t-inv T
 -0.375000 -0.375000 -0.125000    0.00195313  97 t-inv T
 -0.000000 -0.250000 -0.375000    0.00195313  98 t-inv T
  0.250000 -0.125000  0.250000    0.00195313  99 t-inv T
 -0.125000 -0.375000 -0.375000    0.00195313 100 t-inv T
 -0.375000 -0.000000 -0.250000    0.00195313 101 t-inv T
 -0.500000 -0.250000 -0.000000    0.00195313 102 t-inv T
 -0.000000 -0.500000 -0.250000    0.00195313 103 t-inv T
 -0.250000 -0.000000 -0.500000    0.00195313 104 t-inv T
 -0.250000 -0.250000  0.250000    0.00195313 105 t-inv T
 -0.500000 -0.250000 -0.500000    0.00195313 106 t-inv T
 -0.250000 -0.500000 -0.000000    0.00195313 107 t-inv T
 -0.250000  0.250000  0.250000    0.00195313 108 t-inv T
 -0.500000 -0.500000 -0.250000    0.00195313 109 t-inv T
 -0.000000 -0.250000 -0.500000    0.00195313 110 t-inv T
  0.250000 -0.250000  0.250000    0.00195313 111 t-inv T
 -0.250000 -0.500000 -0.500000    0.00195313 112 t-inv T
 -0.500000 -0.000000 -0.250000    0.00195313 113 t-inv T
  0.375000 -0.250000 -0.000000    0.00195313 114 t-inv T
 -0.000000  0.375000 -0.250000    0.00195313 115 t-inv T
 -0.250000 -0.000000  0.375000    0.00195313 116 t-inv T
 -0.250000 -0.250000  0.375000    0.00195313 117 t-inv T
  0.375000 -0.375000  0.375000    0.00195313 118 t-inv T
 -0.250000  0.375000 -0.000000    0.00195313 119 t-inv T
 -0.375000  0.250000  0.250000    0.00195313 120 t-inv T
  0.375000  0.375000 -0.375000    0.00195313 121 t-inv T
 -0.000000 -0.250000  0.375000    0.00195313 122 t-inv T
  0.250000 -0.375000  0.250000    0.00195313 123 t-inv T
 -0.375000  0.375000  0.375000    0.00195313 124 t-inv T
  0.375000 -0.000000 -0.250000    0.00195313 125 t-inv T
  0.250000 -0.250000 -0.000000    0.00195313 126 t-inv T
 -0.000000  0.250000 -0.250000    0.00195313 127 t-inv T
 -0.250000 -0.000000  0.250000    0.00195313 128 t-inv T
 -0.250000 -0.250000 -0.500000    0.00195313 129 t-inv T
  0.250000 -0.500000  0.250000    0.00195313 130 t-inv T
 -0.500000  0.250000  0.250000    0.00195313 131 t-inv T
 -0.375000 -0.375000 -0.000000    0.00195313 132 t-inv T
 -0.000000 -0.375000 -0.375000    0.00195313 133 t-inv T
 -0.375000 -0.000000 -0.375000    0.00195313 134 t-inv T
 -0.500000 -0.375000 -0.000000    0.00195313 135 t-inv T
 -0.000000 -0.500000 -0.375000    0.00195313 136 t-inv T
 -0.375000 -0.000000 -0.500000    0.00195313 137 t-inv T
 -0.375000 -0.375000  0.125000    0.00195313 138 t-inv T
 -0.500000 -0.125000 -0.500000    0.00195313 139 t-inv T
 -0.375000 -0.500000 -0.000000    0.00195313 140 t-inv T
 -0.125000  0.375000  0.375000    0.00195313 141 t-inv T
 -0.500000 -0.500000 -0.125000    0.00195313 142 t-inv T
 -0.000000 -0.375000 -0.500000    0.00195313 143 t-inv T
  0.375000 -0.125000  0.375000    0.00195313 144 t-inv T
 -0.125000 -0.500000 -0.500000    0.00195313 145 t-inv T
 -0.500000 -0.000000 -0.375000    0.00195313 146 t-inv T
  0.375000 -0.375000 -0.000000    0.00195313 147 t-inv T
 -0.000000  0.375000 -0.375000    0.00195313 148 t-inv T
 -0.375000 -0.000000  0.375000    0.00195313 149 t-inv T
 -0.375000 -0.375000  0.250000    0.00195313 150 t-inv T
  0.375000 -0.250000  0.375000    0.00195313 151 t-inv T
 -0.250000  0.375000  0.375000    0.00195313 152 t-inv T
 -0.375000 -0.250000 -0.125000    0.00195313 156 t-inv T
 -0.125000 -0.375000 -0.250000    0.00195313 157 t-inv T
 -0.250000 -0.125000 -0.375000    0.00195313 158 t-inv T
 -0.250000 -0.125000  0.125000    0.00195313 159 t-inv T
 -0.375000 -0.125000 -0.250000    0.00195313 160 t-inv T
 -0.125000  0.250000  0.125000    0.00195313 161 t-inv T
 -0.125000 -0.250000  0.125000    0.00195313 162 t-inv T
 -0.125000  0.125000  0.250000    0.00195313 163 t-inv T
 -0.250000 -0.375000 -0.125000    0.00195313 164 t-inv T
  0.125000 -0.125000  0.250000    0.00195313 165 t-inv T
  0.250000 -0.125000  0.125000    0.00195313 166 t-inv T
 -0.125000 -0.250000 -0.375000    0.00195313 167 t-inv T
 -0.500000 -0.250000 -0.125000    0.00195313 168 t-inv T
 -0.125000 -0.500000 -0.250000    0.00195313 169 t-inv T
 -0.250000 -0.125000 -0.500000    0.00195313 170 t-inv T
 -0.250000 -0.125000  0.250000    0.00195313 171 t-inv T
 -0.500000 -0.250000 -0.375000    0.00195313 172 t-inv T
 -0.125000  0.375000  0.125000    0.00195313 173 t-inv T
 -0.125000 -0.375000  0.125000    0.00195313 174 t-inv T
 -0.250000  0.125000  0.250000    0.00195313 175 t-inv T
  0.375000  0.250000 -0.500000    0.00195313 176 t-inv T
 -0.375000 -0.500000 -0.250000    0.00195313 177 t-inv T
  0.125000 -0.125000  0.375000    0.00195313 178 t-inv T
  0.250000 -0.250000 -0.125000    0.00195313 179 t-inv T
  0.125000 -0.125000 -0.375000    0.00195313 180 t-inv T
  0.250000 -0.250000  0.125000    0.00195313 181 t-inv T
 -0.500000  0.375000  0.250000    0.00195313 182 t-inv T
 -0.250000 -0.375000 -0.500000    0.00195313 183 t-inv T
  0.375000  0.125000 -0.125000    0.00195313 184 t-inv T
 -0.125000  0.250000 -0.250000    0.00195313 185 t-inv T
 -0.375000  0.125000 -0.125000    0.00195313 186 t-inv T
  0.125000  0.250000 -0.250000    0.00195313 187 t-inv T
  0.250000 -0.500000  0.375000    0.00195313 188 t-inv T
 -0.500000  0.125000  0.250000    0.00195313 189 t-inv T
  0.250000 -0.500000  0.125000    0.00195313 190 t-inv T
  0.125000  0.250000 -0.500000    0.00195313 191 t-inv T
  0.375000 -0.250000 -0.125000    0.00195313 192 t-inv T
 -0.125000  0.375000 -0.250000    0.00195313 193 t-inv T
 -0.250000 -0.125000  0.375000    0.00195313 194 t-inv T
  0.375000 -0.375000 -0.500000    0.00195313 195 t-inv T
 -0.125000 -0.500000  0.125000    0.00195313 196 t-inv T
 -0.375000  0.125000  0.250000    0.00195313 197 t-inv T
 -0.500000  0.375000 -0.375000    0.00195313 198 t-inv T
  0.125000 -0.125000 -0.500000    0.00195313 199 t-inv T
  0.250000 -0.375000  0.125000    0.00195313 200 t-inv T
 -0.375000 -0.500000  0.375000    0.00195313 201 t-inv T
 -0.500000  0.125000 -0.125000    0.00195313 202 t-inv T
  0.125000  0.250000 -0.375000    0.00195313 203 t-inv T
 -0.500000 -0.375000 -0.125000    0.00195313 204 t-inv T
 -0.125000 -0.500000 -0.375000    0.00195313 205 t-inv T
 -0.375000 -0.125000 -0.500000    0.00195313 206 t-inv T
 -0.375000 -0.250000  0.125000    0.00195313 207 t-inv T
 -0.500000 -0.125000 -0.375000    0.00195313 208 t-inv T
 -0.125000  0.375000  0.250000    0.00195313 209 t-inv T
 -0.250000 -0.375000  0.125000    0.00195313 210 t-inv T
 -0.125000  0.250000  0.375000    0.00195313 211 t-inv T
 -0.375000 -0.500000 -0.125000    0.00195313 212 t-inv T
  0.250000 -0.125000  0.375000    0.00195313 213 t-inv T
  0.375000 -0.125000  0.250000    0.00195313 214 t-inv T
 -0.125000 -0.375000 -0.500000    0.00195313 215 t-inv T
  0.375000 -0.375000 -0.125000    0.00195313 216 t-inv T
 -0.125000  0.375000 -0.375000    0.00195313 217 t-inv T
 -0.375000 -0.125000  0.375000    0.00195313 218 t-inv T
 -0.375000 -0.250000  0.250000    0.00195313 219 t-inv T
  0.375000 -0.250000 -0.500000    0.00195313 220 t-inv T
 -0.125000 -0.500000  0.250000    0.00195313 221 t-inv T
 -0.250000 -0.500000  0.125000    0.00195313 222 t-inv T
 -0.250000  0.250000  0.375000    0.00195313 223 t-inv T
 -0.500000  0.250000 -0.375000    0.00195313 224 t-inv T
 -0.500000  0.375000 -0.250000    0.00195313 225 t-inv T
  0.250000 -0.125000 -0.500000    0.00195313 226 t-inv T
  0.250000 -0.375000 -0.250000    0.00195313 227 t-inv T
  0.125000 -0.250000 -0.500000    0.00195313 228 t-inv T
  0.375000 -0.250000  0.250000    0.00195313 229 t-inv T
 -0.375000 -0.500000  0.250000    0.00195313 230 t-inv T
 -0.250000 -0.500000  0.375000    0.00195313 231 t-inv T
 -0.500000  0.250000 -0.125000    0.00195313 232 t-inv T
 -0.250000  0.250000 -0.375000    0.00195313 233 t-inv T
 -0.500000  0.125000 -0.250000    0.00195313 234 t-inv T
  0.250000  0.375000 -0.250000    0.00195313 235 t-inv T
  0.250000 -0.375000 -0.500000    0.00195313 236 t-inv T
 -0.375000  0.125000  0.375000    0.00195313 237 t-inv T
  0.375000 -0.375000  0.125000    0.00195313 238 t-inv T
  0.125000  0.375000 -0.375000    0.00195313 239 t-inv T
  0.250000 -0.375000 -0.125000    0.00195313 240 t-inv T
 -0.125000  0.250000 -0.375000    0.00195313 241 t-inv T
 -0.375000 -0.125000  0.250000    0.00195313 242 t-inv T
 -0.375000 -0.250000  0.375000    0.00195313 243 t-inv T
  0.250000 -0.375000  0.375000    0.00195313 244 t-inv T
 -0.125000 -0.375000  0.250000    0.00195313 245 t-inv T
 -0.375000  0.250000  0.375000    0.00195313 246 t-inv T
 -0.375000  0.375000 -0.250000    0.00195313 247 t-inv T
  0.250000 -0.125000 -0.375000    0.00195313 248 t-inv T
  0.375000 -0.375000 -0.250000    0.00195313 249 t-inv T
 -0.250000 -0.375000  0.375000    0.00195313 250 t-inv T
 -0.375000  0.250000 -0.125000    0.00195313 251 t-inv T
  0.375000 -0.500000 -0.125000    0.00195313 252 t-inv T
 -0.125000  0.375000 -0.500000    0.00195313 253 t-inv T
 -0.500000 -0.125000  0.375000    0.00195313 254 t-inv T
 -0.500000 -0.375000  0.125000    0.00195313 255 t-inv T
  0.375000 -0.125000 -0.500000    0.00195313 256 t-inv T
 -0.125000 -0.500000  0.375000    0.00195313 257 t-inv T
  0.250000 -0.500000 -0.250000    0.00195313 258 t-inv T
 -0.250000  0.250000 -0.500000    0.00195313 259 t-inv T
 -0.500000 -0.250000  0.250000    0.00195313 260 t-inv T


--------------------------------------------------------------------------------------------------------




 Dimension of arrays:
   k-points           NKPTS =    260   k-points in BZ     NKDIM =    512   number of bands    NBANDS=     13
   number of dos      NEDOS =    301   number of ions     NIONS =      2
   non local maximal  LDIM  =      6   non local SUM 2l+1 LMDIM =     18
   total plane-waves  NPLWV =  21952
   max r-space proj   IRMAX =      1   max aug-charges    IRDMAX=  19308
   dimension x,y,z NGX =    28 NGY =   28 NGZ =   28
   dimension x,y,z NGXF=    56 NGYF=   56 NGZF=   56
   support grid    NGXF=    56 NGYF=   56 NGZF=   56
   ions per type =               1   1
   NGX,Y,Z   is equivalent  to a cutoff of  11.45, 11.45, 11.45 a.u.
   NGXF,Y,Z  is equivalent  to a cutoff of  22.90, 22.90, 22.90 a.u.

 SYSTEM =  unknown system                          
 POSCAR =  Ga1 As1                                 

 Startparameter for this run:
   NWRITE =      2    write-flag & timer
   PREC   = accura    normal or accurate (medium, high low for compatibility)
   ISTART =      0    job   : 0-new  1-cont  2-samecut
   ICHARG =      2    charge: 1-file 2-atom 10-const
   ISPIN  =      1    spin polarized calculation?
   LNONCOLLINEAR =      F non collinear calculations
   LSORBIT =      F    spin-orbit coupling
   INIWAV =      1    electr: 0-lowe 1-rand  2-diag
   LASPH  =      T    aspherical Exc in radial PAW
   METAGGA=      F    non-selfconsistent MetaGGA calc.

 Electronic Relaxation 1
   ENCUT  =  400.0 eV  29.40 Ry    5.42 a.u.   6.63  6.63  6.63*2*pi/ulx,y,z
   ENINI  =  400.0     initial cutoff
   ENAUG  =  490.7 eV  augmentation charge cutoff
   NELM   =    100;   NELMIN=  2; NELMDL= -5     # of ELM steps 
   EDIFF  = 0.1E-06   stopping-criterion for ELM
   LREAL  =      F    real-space projection
   NLSPLINE    = F    spline interpolate recip. space projectors
   LCOMPAT=      F    compatible to vasp.4.4
   GGA_COMPAT  = T    GGA compatible to vasp.4.4-vasp.4.6
   LMAXPAW     = -100 max onsite density
   LMAXMIX     =    4 max onsite mixed and CHGCAR
   VOSKOWN=      0    Vosko Wilk Nusair interpolation
   ROPT   =    0.00000   0.00000
 Ionic relaxation
   EDIFFG = -.5E-02   stopping-criterion for IOM
   NSW    =     20    number of steps for IOM
   NBLOCK =      1;   KBLOCK =     20    inner block; outer block 
   IBRION =      2    ionic relax: 0-MD 1-quasi-New 2-CG
   NFREE  =      1    steps in history (QN), initial steepest desc. (CG)
   ISIF   =      3    stress and relaxation
   IWAVPR =     11    prediction:  0-non 1-charg 2-wave 3-comb
   ISYM   =      0    0-nonsym 1-usesym 2-fastsym
   LCORR  =      T    Harris-Foulkes like correction to forces

   POTIM  = 0.5000    time-step for ionic-motion
   TEIN   =    0.0    initial temperature
   TEBEG  =    0.0;   TEEND  =   0.0 temperature during run
   SMASS  =  -3.00    Nose mass-parameter (am)
   estimated Nose-frequenzy (Omega)   =  0.10E-29 period in steps = 0.13E+47 mass=  -0.378E-27a.u.
   SCALEE = 1.0000    scale energy and forces
   NPACO  =    256;   APACO  = 16.0  distance and # of slots for P.C.
   PSTRESS=    0.0 pullay stress

  Mass of Ions in am
   POMASS =  69.72 74.92
  Ionic Valenz
   ZVAL   =  13.00  5.00
  Atomic Wigner-Seitz radii
   RWIGS  =  -1.00 -1.00
  virtual crystal weights 
   VCA    =   1.00  1.00
   NELECT =      18.0000    total number of electrons
   NUPDOWN=      -1.0000    fix difference up-down

 DOS related values:
   EMIN   =  10.00;   EMAX   =-10.00  energy-range for DOS
   EFERMI =   0.00
   ISMEAR =     0;   SIGMA  =   0.10  broadening in eV -4-tet -1-fermi 0-gaus

 Electronic relaxation 2 (details)
   IALGO  =     38    algorithm
   LDIAG  =      T    sub-space diagonalisation (order eigenvalues)
   LSUBROT=      F    optimize rotation matrix (better conditioning)
   TURBO    =      0    0=normal 1=particle mesh
   IRESTART =      0    0=no restart 2=restart with 2 vectors
   NREBOOT  =      0    no. of reboots
   NMIN     =      0    reboot dimension
   EREF     =   0.00    reference energy to select bands
   IMIX   =      1    mixing-type and parameters
     AMIX     =   0.40;   BMIX     =  1.00
     AMIX_MAG =   1.60;   BMIX_MAG =  1.00
     AMIN     =   0.10
     WC   =   100.;   INIMIX=   1;  MIXPRE=   1;  MAXMIX= -45

 Intra band minimization:
   WEIMIN = 0.0010     energy-eigenvalue tresh-hold
   EBREAK =  0.19E-08  absolut break condition
   DEPER  =   0.30     relativ break condition  

   TIME   =   0.40     timestep for ELM

  volume/ion in A,a.u.               =      23.77       160.38
  Fermi-wavevector in a.u.,A,eV,Ry     =   1.184415  2.238221 19.086796  1.402840
  Thomas-Fermi vector in A             =   2.320630
 
 Write flags
   LWAVE        =      F    write WAVECAR
   LDOWNSAMPLE  =      F    k-point downsampling of WAVECAR
   LCHARG       =      F    write CHGCAR
   LVTOT        =      F    write LOCPOT, total local potential
   LVHAR        =      T    write LOCPOT, Hartree potential only
   LELF         =      F    write electronic localiz. function (ELF)
   LORBIT       =     10    0 simple, 1 ext, 2 COOP (PROOUT), +10 PAW based schemes


 Dipole corrections
   LMONO  =      F    monopole corrections only (constant potential shift)
   LDIPOL =      F    correct potential (dipole corrections)
   IDIPOL =      0    1-x, 2-y, 3-z, 4-all directions 
   EPSILON=  1.0000000 bulk dielectric constant

 Exchange correlation treatment:
   GGA     =    PE    GGA type
   LEXCH   =     8    internal setting for exchange type
   VOSKOWN=      0    Vosko Wilk Nusair interpolation
   EXXOEP  =     0    0=HF, 1=EXX-LHF (local Hartree Fock) 2=EXX OEP
   LHFCALC =     T    Hartree Fock is set to
   LSYMGRAD=     F    symmetrize gradient (conserves proper symmetry)
   PRECFOCK=fast      Normal, Fast or Accurate (Low or Medium for compatibility)
   LRHFCALC=     F    long range Hartree Fock
   LRSCOR  =     F    long range correlation only (use DFT for short range part)
   LTHOMAS =     F    Thomas Fermi screening in HF
   LMODELHF=     F    short range full HF, long range fraction AEXX
   LFOCKACE=     T    use Adeptively-Compressed-Exchange operator
   ENCUT4O =  -1.0   cutoff for four orbital integrals eV
   LMAXFOCK=     4    L truncation for augmentation on plane wave grid
   LMAXFOCKAE=  -1    L truncation for all-electron charge restoration on plane wave grid
   NMAXFOCKAE=   1    number of basis functions for all-electron charge restoration
   LFOCKAEDFT=     F  apply the AE augmentation even for DFT
   NKREDX  =     1    reduce k-point grid by
   NKREDY  =     1    reduce k-point grid by
   NKREDZ  =     1    reduce k-point grid by
   SHIFTRED=     F    shift reduced grid of Gamma
   HFKIDENT=     F    idential grid for each k-point
   ODDONLY =     F    use only odd q-grid points
   EVENONLY=     F    use only even q-grid points
   HFALPHA =   -1.0000 decay constant for conv. correction
   MCALPHA =    0.0000 extent of test-charge in conv. correction in multipole expansion
   AEXX    =    0.2880 exact exchange contribution
   HFSCREEN=    0.2000 screening length (either q_TF or 0.3 A-1)
   HFSCREENC=   0.2000 screening length for correlation (either q_TF or 0.3 A-1)
   HFRCUT  =    0.0000 spherical cutoff for potential kernel
   ALDAX   =    0.7120 LDA exchange part
   AGGAX   =    0.7120 GGA exchange part
   ALDAC   =    1.0000 LDA correlation
   AGGAC   =    1.0000 GGA correlation
   ENCUTFOCK=  -1.0 apply spherical cutoff to Coloumb kernel
   NBANDSGWLOW=     1    first orbital included in HF term
   NBLOCK_FOCK=    64    blocking factor in FOCK_ACC
 Linear response parameters
   LEPSILON=     F    determine dielectric tensor
   LRPA    =     F    only Hartree local field effects (RPA)
   LNABLA  =     F    use nabla operator in PAW spheres
   LVEL    =     F    velocity operator in full k-point grid
   LINTERFAST=   F  fast interpolation
   KINTER  =     0    interpolate to denser k-point grid
   CSHIFT  =0.1000    complex shift for real part using Kramers Kronig
   OMEGAMAX=  -1.0    maximum frequency
   DEG_THRESHOLD= 0.2000000E-02 threshold for treating states as degnerate
   RTIME   =   -0.100 relaxation time in fs
  (WPLASMAI=    0.000 imaginary part of plasma frequency in eV, 0.658/RTIME)
   DFIELD  = 0.0000000 0.0000000 0.0000000 field for delta impulse in time
 
 Orbital magnetization related:
   ORBITALMAG=     F  switch on orbital magnetization
   LCHIMAG   =     F  perturbation theory with respect to B field
   DQ        =  0.001000  dq finite difference perturbation B field
   LLRAUG    =     F  two centre corrections for induced B field



--------------------------------------------------------------------------------------------------------


 conjugate gradient relaxation of ions
 charge density and potential will be updated during run
 non-spin polarized calculation
 Variant of blocked Davidson
 Davidson routine will perform the subspace rotation
 perform sub-space diagonalisation
    after iterative eigenvector-optimisation
 Kerker-like  mixing scheme
 using additional bands             4
 reciprocal scheme for non local part
 use partial core corrections
 calculate Harris-corrections to forces 
   (improved forces if not selfconsistent)
 use gradient corrections 
 use of overlap-Matrix (Vanderbilt PP)
 Gauss-broadening in eV      SIGMA  =   0.10


--------------------------------------------------------------------------------------------------------


  energy-cutoff  :      400.00
  volume of cell :       47.53
      direct lattice vectors                 reciprocal lattice vectors
     0.000000000  2.875091050  2.875091050    -0.173907536  0.173907536  0.173907536
     2.875091050  0.000000000  2.875091050     0.173907536 -0.173907536  0.173907536
     2.875091050  2.875091050  0.000000000     0.173907536  0.173907536 -0.173907536

  length of vectors
     4.065992755  4.065992755  4.065992755     0.301216688  0.301216688  0.301216688


 
 k-points in units of 2pi/SCALE and weight: Num irrep kpoints: 47                   
   0.00000000  0.00000000  0.00000000       0.002
  -0.02173844  0.02173844  0.02173844       0.004
   0.02173844 -0.02173844  0.02173844       0.004
   0.02173844  0.02173844 -0.02173844       0.004
   0.02173844  0.02173844  0.02173844       0.004
  -0.04347688  0.04347688  0.04347688       0.004
   0.04347688 -0.04347688  0.04347688       0.004
   0.04347688  0.04347688 -0.04347688       0.004
   0.04347688  0.04347688  0.04347688       0.004
  -0.06521533  0.06521533  0.06521533       0.004
   0.06521533 -0.06521533  0.06521533       0.004
   0.06521533  0.06521533 -0.06521533       0.004
   0.06521533  0.06521533  0.06521533       0.004
  -0.08695377  0.08695377  0.08695377       0.002
   0.08695377 -0.08695377  0.08695377       0.002
   0.08695377  0.08695377 -0.08695377       0.002
   0.08695377  0.08695377  0.08695377       0.002
   0.00000000  0.00000000  0.04347688       0.004
   0.04347688  0.00000000  0.00000000       0.004
   0.00000000  0.04347688  0.00000000       0.004
  -0.02173844  0.02173844  0.06521533       0.004
   0.06521533 -0.02173844  0.02173844       0.004
   0.02173844  0.06521533 -0.02173844       0.004
  -0.02173844 -0.02173844  0.06521533       0.004
   0.02173844  0.06521533  0.02173844       0.004
   0.02173844 -0.02173844  0.06521533       0.004
  -0.06521533  0.02173844  0.02173844       0.004
   0.02173844  0.02173844  0.06521533       0.004
   0.06521533  0.02173844 -0.02173844       0.004
   0.02173844 -0.06521533  0.02173844       0.004
   0.06521533  0.02173844  0.02173844       0.004
  -0.02173844  0.06521533  0.02173844       0.004
  -0.04347688  0.04347688  0.08695377       0.004
   0.08695377 -0.04347688  0.04347688       0.004
   0.04347688  0.08695377 -0.04347688       0.004
  -0.04347688 -0.04347688  0.08695377       0.004
   0.04347688  0.08695377  0.04347688       0.004
   0.04347688 -0.04347688  0.08695377       0.004
  -0.08695377  0.04347688  0.04347688       0.004
   0.04347688  0.04347688  0.08695377       0.004
   0.08695377  0.04347688 -0.04347688       0.004
   0.04347688 -0.08695377  0.04347688       0.004
   0.08695377  0.04347688  0.04347688       0.004
  -0.04347688  0.08695377  0.04347688       0.004
  -0.06521533  0.06521533  0.10869221       0.004
   0.10869221 -0.06521533  0.06521533       0.004
   0.06521533  0.10869221 -0.06521533       0.004
  -0.06521533 -0.06521533  0.10869221       0.004
   0.06521533  0.10869221  0.06521533       0.004
   0.06521533 -0.06521533  0.10869221       0.004
  -0.10869221  0.06521533  0.06521533       0.004
   0.06521533  0.06521533  0.10869221       0.004
   0.10869221  0.06521533 -0.06521533       0.004
   0.06521533 -0.10869221  0.06521533       0.004
[...]

 k-point   243 :       0.3750    0.2500   -0.3750
  band No.  band energies     occupation 
      1     -14.4387      2.00000
      2     -14.3533      2.00000
      3     -14.3437      2.00000
      4     -14.3050      2.00000
      5     -14.2955      2.00000
      6      -8.2618      2.00000
      7      -3.5356      2.00000
      8      -0.7554      2.00000
      9       0.8910      2.00000
     10       7.6578      0.00000
     11       9.6379      0.00000
     12       9.8995      0.00000
     13      12.3122      0.00000

 k-point   244 :      -0.2500    0.3750   -0.3750
  band No.  band energies     occupation 
      1     -14.4387      2.00000
      2     -14.3533      2.00000
      3     -14.3437      2.00000
      4     -14.3050      2.00000
      5     -14.2955      2.00000
      6      -8.2618      2.00000
      7      -3.5356      2.00000
      8      -0.7554      2.00000
      9       0.8910      2.00000
     10       7.6578      0.00000
     11       9.6379      0.00000
     12       9.8995      0.00000
     13      12.3122      0.00000

 k-point   245 :       0.1250    0.3750   -0.2500
  band No.  band energies     occupation 
      1     -14.4387      2.00000
      2     -14.3533      2.00000
      3     -14.3437      2.00000
      4     -14.3050      2.00000
      5     -14.2955      2.00000
      6      -8.2618      2.00000
      7      -3.5357      2.00000
      8      -0.7554      2.00000
      9       0.8910      2.00000
     10       7.6576      0.00000
     11       9.6378      0.00000
     12       9.8994      0.00000
     13      12.3125      0.00000

 k-point   246 :       0.3750   -0.2500   -0.3750
  band No.  band energies     occupation 
      1     -14.4387      2.00000
      2     -14.3533      2.00000
      3     -14.3437      2.00000
      4     -14.3050      2.00000
      5     -14.2955      2.00000
      6      -8.2618      2.00000
      7      -3.5356      2.00000
      8      -0.7554      2.00000
      9       0.8910      2.00000
     10       7.6578      0.00000
     11       9.6379      0.00000
     12       9.8995      0.00000
     13      12.3122      0.00000

 k-point   247 :       0.3750   -0.3750    0.2500
  band No.  band energies     occupation 
      1     -14.4387      2.00000
      2     -14.3533      2.00000
      3     -14.3437      2.00000
      4     -14.3050      2.00000
      5     -14.2955      2.00000
      6      -8.2618      2.00000
      7      -3.5356      2.00000
      8      -0.7554      2.00000
      9       0.8910      2.00000
     10       7.6578      0.00000
     11       9.6379      0.00000
     12       9.8995      0.00000
     13      12.3122      0.00000

 k-point   248 :      -0.2500    0.1250    0.3750
  band No.  band energies     occupation 
      1     -14.4387      2.00000
      2     -14.3533      2.00000
      3     -14.3437      2.00000
      4     -14.3050      2.00000
      5     -14.2955      2.00000
      6      -8.2618      2.00000
      7      -3.5357      2.00000
      8      -0.7554      2.00000
      9       0.8910      2.00000
     10       7.6576      0.00000
     11       9.6378      0.00000
     12       9.8994      0.00000
     13      12.3125      0.00000

 k-point   249 :      -0.3750    0.3750    0.2500
  band No.  band energies     occupation 
      1     -14.4387      2.00000
      2     -14.3533      2.00000
      3     -14.3437      2.00000
      4     -14.3050      2.00000
      5     -14.2955      2.00000
      6      -8.2618      2.00000
      7      -3.5356      2.00000
      8      -0.7554      2.00000
      9       0.8910      2.00000
     10       7.6578      0.00000
     11       9.6379      0.00000
     12       9.8995      0.00000
     13      12.3122      0.00000

 k-point   250 :       0.2500    0.3750   -0.3750
  band No.  band energies     occupation 
      1     -14.4387      2.00000
      2     -14.3533      2.00000
      3     -14.3437      2.00000
      4     -14.3050      2.00000
      5     -14.2955      2.00000
      6      -8.2618      2.00000
      7      -3.5356      2.00000
      8      -0.7554      2.00000
      9       0.8910      2.00000
     10       7.6578      0.00000
     11       9.6379      0.00000
     12       9.8995      0.00000
     13      12.3122      0.00000

 k-point   251 :       0.3750   -0.2500    0.1250
  band No.  band energies     occupation 
      1     -14.4387      2.00000
      2     -14.3533      2.00000
      3     -14.3437      2.00000
      4     -14.3050      2.00000
      5     -14.2955      2.00000
      6      -8.2618      2.00000
      7      -3.5357      2.00000
      8      -0.7554      2.00000
      9       0.8910      2.00000
     10       7.6576      0.00000
     11       9.6378      0.00000
     12       9.8994      0.00000
     13      12.3125      0.00000

 k-point   252 :      -0.3750    0.5000    0.1250
  band No.  band energies     occupation 
      1     -14.4510      2.00000
      2     -14.3425      2.00000
      3     -14.3365      2.00000
      4     -14.3140      2.00000
      5     -14.2901      2.00000
      6      -7.9578      2.00000
      7      -3.9533      2.00000
      8      -0.0372      2.00000
      9       0.0842      2.00000
     10       6.7351      0.00000
     11       7.0284      0.00000
     12      12.8085      0.00000
     13      13.0119      0.00000

 k-point   253 :       0.1250   -0.3750    0.5000
  band No.  band energies     occupation 
      1     -14.4510      2.00000
      2     -14.3425      2.00000
      3     -14.3365      2.00000
      4     -14.3140      2.00000
      5     -14.2901      2.00000
      6      -7.9578      2.00000
      7      -3.9533      2.00000
      8      -0.0372      2.00000
      9       0.0842      2.00000
     10       6.7351      0.00000
     11       7.0284      0.00000
     12      12.8085      0.00000
     13      13.0119      0.00000

 k-point   254 :       0.5000    0.1250   -0.3750
  band No.  band energies     occupation 
      1     -14.4510      2.00000
      2     -14.3425      2.00000
      3     -14.3365      2.00000
      4     -14.3140      2.00000
      5     -14.2901      2.00000
      6      -7.9578      2.00000
      7      -3.9533      2.00000
      8      -0.0372      2.00000
      9       0.0842      2.00000
     10       6.7351      0.00000
     11       7.0284      0.00000
     12      12.8085      0.00000
     13      13.0120      0.00000

 k-point   255 :       0.5000    0.3750   -0.1250
  band No.  band energies     occupation 
      1     -14.4510      2.00000
      2     -14.3425      2.00000
      3     -14.3365      2.00000
      4     -14.3140      2.00000
      5     -14.2901      2.00000
      6      -7.9578      2.00000
      7      -3.9533      2.00000
      8      -0.0372      2.00000
      9       0.0842      2.00000
     10       6.7351      0.00000
     11       7.0284      0.00000
     12      12.8085      0.00000
     13      13.0119      0.00000

 k-point   256 :      -0.3750    0.1250    0.5000
  band No.  band energies     occupation 
      1     -14.4510      2.00000
      2     -14.3425      2.00000
      3     -14.3365      2.00000
      4     -14.3140      2.00000
      5     -14.2901      2.00000
      6      -7.9578      2.00000
      7      -3.9533      2.00000
      8      -0.0372      2.00000
      9       0.0842      2.00000
     10       6.7351      0.00000
     11       7.0284      0.00000
     12      12.8085      0.00000
     13      13.0119      0.00000

 k-point   257 :       0.1250    0.5000   -0.3750
  band No.  band energies     occupation 
      1     -14.4510      2.00000
      2     -14.3425      2.00000
      3     -14.3365      2.00000
      4     -14.3140      2.00000
      5     -14.2901      2.00000
      6      -7.9578      2.00000
      7      -3.9533      2.00000
      8      -0.0372      2.00000
      9       0.0842      2.00000
     10       6.7351      0.00000
     11       7.0284      0.00000
     12      12.8085      0.00000
     13      13.0119      0.00000

 k-point   258 :      -0.2500    0.5000    0.2500
  band No.  band energies     occupation 
      1     -14.4443      2.00000
      2     -14.3510      2.00000
      3     -14.3378      2.00000
      4     -14.3082      2.00000
      5     -14.2945      2.00000
      6      -7.9272      2.00000
      7      -3.8310      2.00000
      8      -0.4747      2.00000
      9      -0.2288      2.00000
     10       8.9690      0.00000
     11       9.1595      0.00000
     12       9.9396      0.00000
     13      10.3862      0.00000

 k-point   259 :       0.2500   -0.2500    0.5000
  band No.  band energies     occupation 
      1     -14.4443      2.00000
      2     -14.3510      2.00000
      3     -14.3378      2.00000
      4     -14.3082      2.00000
      5     -14.2945      2.00000
      6      -7.9272      2.00000
      7      -3.8310      2.00000
      8      -0.4747      2.00000
      9      -0.2288      2.00000
     10       8.9690      0.00000
     11       9.1595      0.00000
     12       9.9396      0.00000
     13      10.3862      0.00000

 k-point   260 :       0.5000    0.2500   -0.2500
  band No.  band energies     occupation 
      1     -14.4443      2.00000
      2     -14.3510      2.00000
      3     -14.3378      2.00000
      4     -14.3082      2.00000
      5     -14.2945      2.00000
      6      -7.9272      2.00000
      7      -3.8310      2.00000
      8      -0.4747      2.00000
      9      -0.2288      2.00000
     10       8.9690      0.00000
     11       9.1595      0.00000
     12       9.9396      0.00000
     13      10.3862      0.00000


--------------------------------------------------------------------------------------------------------


 soft charge-density along one line, spin component            1
         0         1         2         3         4         5         6         7         8         9
 total charge-density along one line
 
 pseudopotential strength for first ion, spin component:            1
-11.074   0.000  -0.000   0.000   0.000   0.060  -0.000   0.000
  0.000 -11.074   0.000   0.000  -0.000  -0.000   0.060  -0.000
 -0.000   0.000 -11.071   0.000  -0.000   0.000  -0.000   0.056
  0.000   0.000   0.000 -11.074   0.000  -0.000  -0.000  -0.000
  0.000  -0.000  -0.000   0.000 -11.071  -0.000   0.000  -0.000
  0.060  -0.000   0.000  -0.000  -0.000   5.116   0.000   0.000
 -0.000   0.060  -0.000  -0.000   0.000   0.000   5.116  -0.000
  0.000  -0.000   0.056  -0.000  -0.000   0.000  -0.000   5.115
 -0.000  -0.000  -0.000   0.060  -0.000  -0.000  -0.000  -0.000
 -0.000   0.000  -0.000  -0.000   0.056  -0.000  -0.000  -0.000
  0.000   0.000   0.000   0.000  -0.000  -0.000  -0.000   0.000
 -0.000  -0.000  -0.000  -0.000   0.000   0.000   0.000   0.000
  0.000   0.000  -0.000   0.003  -0.000  -0.000  -0.000  -0.000
  0.003   0.000   0.000   0.000   0.000  -0.007  -0.000   0.000
  0.000   0.003  -0.000   0.000   0.000  -0.000  -0.007  -0.000
 -0.000  -0.000   0.000  -0.018   0.000   0.000   0.000   0.000
 -0.018  -0.000  -0.000  -0.000  -0.000   0.009   0.000  -0.000
 -0.000  -0.018   0.000  -0.000  -0.000   0.000   0.009   0.000
 total augmentation occupancy for first ion, spin component:            1
  1.993  -0.000  -0.000  -0.000   0.000  -0.001  -0.000  -0.000  -0.000   0.000   0.000   0.000  -0.000   0.024  -0.000  -0.000
 -0.000   1.993   0.000  -0.000  -0.000  -0.000  -0.001   0.000  -0.000  -0.000   0.000   0.000  -0.000  -0.000   0.024  -0.000
 -0.000   0.000   1.989   0.000   0.000  -0.000   0.000  -0.012   0.000   0.000  -0.000   0.000   0.000  -0.000   0.000   0.000
 -0.000  -0.000   0.000   1.993   0.000  -0.000  -0.000   0.000  -0.001   0.000   0.000   0.000   0.024  -0.000  -0.000   0.003
  0.000  -0.000   0.000   0.000   1.989   0.000  -0.000   0.000   0.000  -0.012  -0.000  -0.000   0.000   0.000  -0.000   0.000
 -0.001  -0.000  -0.000  -0.000   0.000   0.046  -0.000  -0.000  -0.000   0.000  -0.000  -0.000  -0.000   0.164  -0.000  -0.000
 -0.000  -0.001   0.000  -0.000  -0.000  -0.000   0.046   0.000  -0.000  -0.000  -0.000  -0.000  -0.000  -0.000   0.164  -0.000
 -0.000   0.000  -0.012   0.000   0.000  -0.000   0.000   0.012   0.000   0.000  -0.000  -0.000   0.000  -0.000   0.000   0.000
 -0.000  -0.000   0.000  -0.001   0.000  -0.000  -0.000   0.000   0.046   0.000  -0.000  -0.000   0.164  -0.000  -0.000   0.003
  0.000  -0.000   0.000   0.000  -0.012   0.000  -0.000   0.000   0.000   0.012  -0.000  -0.000   0.000   0.000  -0.000   0.000
  0.000   0.000  -0.000   0.000  -0.000  -0.000  -0.000  -0.000  -0.000  -0.000   1.403   0.044  -0.000  -0.000  -0.000  -0.000
  0.000   0.000   0.000   0.000  -0.000  -0.000  -0.000  -0.000  -0.000  -0.000   0.044   0.002  -0.000  -0.000  -0.000  -0.000
 -0.000  -0.000   0.000   0.024   0.000  -0.000  -0.000   0.000   0.164   0.000  -0.000  -0.000   0.936  -0.000  -0.000   0.019
  0.024  -0.000  -0.000  -0.000   0.000   0.164  -0.000  -0.000  -0.000   0.000  -0.000  -0.000  -0.000   0.936  -0.000  -0.000
 -0.000   0.024   0.000  -0.000  -0.000  -0.000   0.164   0.000  -0.000  -0.000  -0.000  -0.000  -0.000  -0.000   0.936  -0.000
 -0.000  -0.000   0.000   0.003   0.000  -0.000  -0.000   0.000   0.003   0.000  -0.000  -0.000   0.019  -0.000  -0.000   0.000
  0.003  -0.000  -0.000  -0.000   0.000   0.003  -0.000  -0.000  -0.000   0.000  -0.000  -0.000  -0.000   0.019  -0.000  -0.000
 -0.000   0.003   0.000  -0.000  -0.000  -0.000   0.003   0.000  -0.000  -0.000  -0.000  -0.000  -0.000  -0.000   0.019  -0.000


------------------------ aborting loop because EDIFF is reached ----------------------------------------


 


 total charge     
 
# of ion       s       p       d       tot
------------------------------------------
    1        0.835   0.795  10.011  11.641
    2        1.221   1.649   0.032   2.902
--------------------------------------------------
tot          2.056   2.444  10.043  14.543
 
    CHARGE:  cpu time    0.0809: real time    0.0813
    FORLOC:  cpu time    0.0011: real time    0.0011
    FORHF :  cpu time  255.2865: real time  256.5348
    FORNL :  cpu time    0.1854: real time    0.1862
    STRESS:  cpu time    2.1734: real time    2.1846
    FORCOR:  cpu time    0.1615: real time    0.1620
    FORHAR:  cpu time    0.0018: real time    0.0018
    MIXING:  cpu time    0.0011: real time    0.0011
    OFIELD:  cpu time    0.0000: real time    0.0000

  FORCE on cell =-STRESS in cart. coord.  units (eV):
  Direction    XX          YY          ZZ          XY          YZ          ZX
  --------------------------------------------------------------------------------------
  Alpha Z    59.99698    59.99698    59.99698
  Ewald    -421.14700  -421.14699  -421.14698    -0.00433    -0.00433    -0.00433
  Hartree   241.62760   241.62762   241.62761    -0.00239    -0.00240    -0.00240
  E(xc)     -70.39420   -70.39420   -70.39420     0.00001     0.00001     0.00001
  Local     -60.88229   -60.88233   -60.88232     0.00679     0.00680     0.00680
  n-local   172.22777   172.22778   172.22777    -0.00007    -0.00007    -0.00007
  augment   106.10578   106.10578   106.10578    -0.00011    -0.00011    -0.00011
  Kinetic   109.58903   109.58904   109.58903    -0.00012    -0.00012    -0.00012
  Fock     -137.12776  -137.12776  -137.12776     0.00020     0.00020     0.00020
  -------------------------------------------------------------------------------------
  Total      -0.00409    -0.00409    -0.00409    -0.00002    -0.00002    -0.00002
  in kB      -0.14438    -0.14431    -0.14433    -0.00076    -0.00077    -0.00077
  external pressure =       -0.14 kB  Pullay stress =        0.00 kB


 VOLUME and BASIS-vectors are now :
 -----------------------------------------------------------------------------
  energy-cutoff  :      400.00
  volume of cell :       45.40
      direct lattice vectors                 reciprocal lattice vectors
     0.000032280  2.831428234  2.831428275    -0.176592351  0.176590331  0.176590329
     2.831428138  0.000032278  2.831428273     0.176590337 -0.176592345  0.176590329
     2.831428129  2.831428227  0.000032288     0.176590338  0.176590332 -0.176592343

  length of vectors
     4.004244239  4.004244170  4.004244131     0.305864591  0.305864591  0.305864592


 FORCES acting on ions
    electron-ion (+dipol)            ewald-force                    non-local-force                 convergence-correction
 -----------------------------------------------------------------------------------------------
   -.355E-02 -.355E-02 -.355E-02   0.324E-02 0.324E-02 0.324E-02   0.377E-03 0.379E-03 0.378E-03   0.260E-06 0.509E-06 0.285E-06
   0.323E-02 0.323E-02 0.323E-02   -.324E-02 -.324E-02 -.324E-02   -.703E-04 -.707E-04 -.710E-04   -.154E-07 -.550E-07 -.494E-07
 -----------------------------------------------------------------------------------------------
   -.315E-03 -.315E-03 -.315E-03   -.807E-16 0.343E-16 0.195E-14   0.307E-03 0.308E-03 0.307E-03   0.244E-06 0.454E-06 0.236E-06
 
 
 POSITION                                       TOTAL-FORCE (eV/Angst)
 -----------------------------------------------------------------------------------
      0.00000      0.00000      0.00000         0.000091      0.000091      0.000091
      1.41572      1.41572      1.41572        -0.000091     -0.000091     -0.000091
 -----------------------------------------------------------------------------------
    total drift:                                0.000001      0.000001      0.000001


--------------------------------------------------------------------------------------------------------



  FREE ENERGIE OF THE ION-ELECTRON SYSTEM (eV)
  ---------------------------------------------------
  free  energy   TOTEN  =       -10.15767258 eV

  energy  without entropy=      -10.15767258  energy(sigma->0) =      -10.15767258
 
 d Force =-0.2043615E-09[-0.162E-09,-0.247E-09]  d Energy = 0.5269784E-02-0.527E-02
 d Force =-0.7215624E-08[-0.576E-08,-0.867E-08]  d Ewald  =-0.9289948E+01 0.929E+01


--------------------------------------------------------------------------------------------------------


    POTLOK:  cpu time    0.6478: real time    0.6497


--------------------------------------------------------------------------------------------------------




--------------------------------------------------------------------------------------------------------


  
 reached required accuracy - stopping structural energy minimisation
     LOOP+:  cpu time 1306.6414: real time 1313.7824
    4ORBIT:  cpu time    0.0000: real time    0.0159
 


 total charge     
 
# of ion       s       p       d       tot
------------------------------------------
    1        0.835   0.795  10.011  11.641
    2        1.221   1.649   0.032   2.902
--------------------------------------------------
tot          2.056   2.444  10.043  14.543
 

 total amount of memory used by VASP MPI-rank0   166984. kBytes
=======================================================================

   base      :      30000. kBytes
   nonl-proj :      66446. kBytes
   fftplans  :       6192. kBytes
   grid      :      10976. kBytes
   one-center:         31. kBytes
   HF        :        129. kBytes
   nonlr-proj:       1479. kBytes
   wavefun   :      49645. kBytes
   fock_wrk  :       2086. kBytes
 
  
  
 General timing and accounting informations for this job:
 ========================================================
  
                  Total CPU time used (sec):     4725.028
                            User time (sec):     4716.539
                          System time (sec):        8.490
                         Elapsed time (sec):     4835.624
  
                   Maximum memory used (kb):     2841000.
                   Average memory used (kb):           0.
  
                          Minor page faults:      1580484
                          Major page faults:          920
                 Voluntary context switches:       128286
