PROCAR new format
# of k-points:  260         # of bands:   13         # of ions:    2

 k-point     1 :    0.00000000 0.00000000 0.00000000     weight = 0.00195313

band     1 # energy  -14.37805039 # occ.  2.00000000
 
ion      s      p      d    tot
    1  0.000  0.000  0.986  0.986
    2  0.000  0.003  0.000  0.003
tot    0.000  0.003  0.986  0.989
 
band     2 # energy  -14.37804863 # occ.  2.00000000
 
ion      s      p      d    tot
    1  0.000  0.000  0.986  0.986
    2  0.000  0.003  0.000  0.003
tot    0.000  0.003  0.986  0.989
 
band     3 # energy  -14.37804320 # occ.  2.00000000
 
ion      s      p      d    tot
    1  0.000  0.000  0.986  0.986
    2  0.000  0.003  0.000  0.003
tot    0.000  0.003  0.986  0.989
 
band     4 # energy  -14.29791014 # occ.  2.00000000
 
ion      s      p      d    tot
    1  0.000  0.000  0.991  0.991
    2  0.000  0.000  0.000  0.000
tot    0.000  0.000  0.991  0.991
 
band     5 # energy  -14.29790885 # occ.  2.00000000
 
ion      s      p      d    tot
    1  0.000  0.000  0.991  0.991
    2  0.000  0.000  0.000  0.000
tot    0.000  0.000  0.991  0.991
 
band     6 # energy  -10.74060202 # occ.  2.00000000
 
ion      s      p      d    tot
    1  0.173  0.000  0.000  0.173
    2  0.434  0.000  0.000  0.434
tot    0.607  0.000  0.000  0.607
 
band     7 # energy    3.38306648 # occ.  1.99999999
 
ion      s      p      d    tot
    1  0.000  0.102  0.061  0.163
    2  0.000  0.455  0.006  0.461
tot    0.000  0.557  0.067  0.624
 
band     8 # energy    3.38312873 # occ.  1.99999999
 
ion      s      p      d    tot
    1  0.000  0.102  0.061  0.163
    2  0.000  0.455  0.006  0.461
tot    0.000  0.557  0.067  0.624
 
band     9 # energy    3.38312936 # occ.  1.99999999
 
ion      s      p      d    tot
    1  0.000  0.102  0.061  0.163
    2  0.000  0.455  0.006  0.461
tot    0.000  0.557  0.067  0.624
 
band    10 # energy    4.91088966 # occ.  0.00000000
 
ion      s      p      d    tot
    1  0.410  0.000  0.000  0.410
    2  0.369  0.000  0.000  0.369
tot    0.779  0.000  0.000  0.779
 
band    11 # energy    8.07003056 # occ.  0.00000000
 
ion      s      p      d    tot
    1  0.000  0.382  0.009  0.391
    2  0.000  0.041  0.070  0.111
tot    0.000  0.423  0.079  0.502
 
band    12 # energy    8.07028782 # occ.  0.00000000
 
ion      s      p      d    tot
    1  0.000  0.382  0.009  0.391
    2  0.000  0.041  0.070  0.111
tot    0.000  0.423  0.079  0.502
 
band    13 # energy    8.07028919 # occ.  0.00000000
 
ion      s      p      d    tot
    1  0.000  0.382  0.009  0.391
    2  0.000  0.041  0.070  0.111
tot    0.000  0.423  0.079  0.502
 

 k-point     2 :    0.12500000 0.00000000 0.00000000     weight = 0.00390625

band     1 # energy  -14.38577564 # occ.  2.00000000
 
ion      s      p      d    tot
    1  0.000  0.000  0.983  0.983
    2  0.002  0.002  0.000  0.005
tot    0.002  0.002  0.983  0.988
 
band     2 # energy  -14.37506863 # occ.  2.00000000
 
ion      s      p      d    tot
    1  0.000  0.000  0.986  0.986
    2  0.000  0.003  0.000  0.003
tot    0.000  0.003  0.986  0.989
 
band     3 # energy  -14.37506296 # occ.  2.00000000
 
ion      s      p      d    tot
    1  0.000  0.000  0.986  0.986
    2  0.000  0.003  0.000  0.003
tot    0.000  0.003  0.986  0.989
 
band     4 # energy  -14.29816210 # occ.  2.00000000
 
ion      s      p      d    tot
    1  0.000  0.000  0.991  0.991
    2  0.000  0.000  0.000  0.000
tot    0.000  0.000  0.991  0.991
 
band     5 # energy  -14.29816062 # occ.  2.00000000
 
ion      s      p      d    tot
    1  0.000  0.000  0.991  0.991
    2  0.000  0.000  0.000  0.000
tot    0.000  0.000  0.991  0.991
 
band     6 # energy  -10.54384252 # occ.  2.00000000
 
ion      s      p      d    tot
    1  0.167  0.003  0.003  0.173
    2  0.437  0.002  0.000  0.438
tot    0.604  0.004  0.003  0.612
 
band     7 # energy    1.43092969 # occ.  2.00000000
 
ion      s      p      d    tot
    1  0.135  0.084  0.036  0.255
    2  0.109  0.265  0.006  0.380
tot    0.244  0.349  0.042  0.635
 
band     8 # energy    3.13595001 # occ.  2.00000000
 
ion      s      p      d    tot
    1  0.000  0.120  0.053  0.173
    2  0.000  0.433  0.007  0.440
tot    0.000  0.553  0.060  0.613
 
band     9 # energy    3.13599588 # occ.  2.00000000
 
ion      s      p      d    tot
    1  0.000  0.120  0.053  0.173
    2  0.000  0.433  0.007  0.440
tot    0.000  0.553  0.060  0.613
 
band    10 # energy    5.91000159 # occ.  0.00000000
 
ion      s      p      d    tot
    1  0.285  0.069  0.006  0.361
    2  0.219  0.103  0.009  0.331
tot    0.504  0.173  0.016  0.692
 
band    11 # energy    8.44076405 # occ.  0.00000000
 
ion      s      p      d    tot
    1  0.000  0.366  0.015  0.381
    2  0.000  0.062  0.069  0.131
tot    0.000  0.428  0.084  0.512
 
band    12 # energy    8.44099209 # occ.  0.00000000
 
ion      s      p      d    tot
    1  0.000  0.366  0.015  0.381
    2  0.000  0.062  0.069  0.131
tot    0.000  0.428  0.084  0.512
 
band    13 # energy    8.53001523 # occ.  0.00000000
 
ion      s      p      d    tot
    1  0.051  0.238  0.024  0.313
    2  0.037  0.122  0.051  0.211
tot    0.089  0.360  0.074  0.524
 

 k-point     3 :    0.00000000 0.12500000 0.00000000     weight = 0.00390625

band     1 # energy  -14.38577565 # occ.  2.00000000
 
ion      s      p      d    tot
    1  0.000  0.000  0.983  0.983
    2  0.002  0.002  0.000  0.005
tot    0.002  0.002  0.983  0.988
 
band     2 # energy  -14.37506886 # occ.  2.00000000
 
ion      s      p      d    tot
    1  0.000  0.000  0.986  0.986
    2  0.000  0.003  0.000  0.003
tot    0.000  0.003  0.986  0.989
 
band     3 # energy  -14.37506273 # occ.  2.00000000
 
ion      s      p      d    tot
    1  0.000  0.000  0.986  0.986
    2  0.000  0.003  0.000  0.003
tot    0.000  0.003  0.986  0.989
 
band     4 # energy  -14.29816201 # occ.  2.00000000
 
ion      s      p      d    tot
    1  0.000  0.000  0.991  0.991
    2  0.000  0.000  0.000  0.000
tot    0.000  0.000  0.991  0.991
 
band     5 # energy  -14.29816071 # occ.  2.00000000
 
ion      s      p      d    tot
    1  0.000  0.000  0.991  0.991
    2  0.000  0.000  0.000  0.000
tot    0.000  0.000  0.991  0.991
 
band     6 # energy  -10.54384252 # occ.  2.00000000
 
ion      s      p      d    tot
    1  0.167  0.003  0.003  0.173
    2  0.437  0.002  0.000  0.438
tot    0.604  0.004  0.003  0.612
 
band     7 # energy    1.43092971 # occ.  2.00000000
 
ion      s      p      d    tot
    1  0.135  0.084  0.036  0.255
    2  0.109  0.265  0.006  0.380
tot    0.244  0.349  0.042  0.635
 
band     8 # energy    3.13594970 # occ.  2.00000000
 
ion      s      p      d    tot
    1  0.000  0.120  0.053  0.173
    2  0.000  0.433  0.007  0.440
tot    0.000  0.553  0.060  0.613
 
band     9 # energy    3.13599619 # occ.  2.00000000
 
ion      s      p      d    tot
    1  0.000  0.120  0.053  0.173
    2  0.000  0.433  0.007  0.440
tot    0.000  0.553  0.060  0.613
 
band    10 # energy    5.91000156 # occ.  0.00000000
 
ion      s      p      d    tot
    1  0.285  0.069  0.006  0.361
    2  0.219  0.103  0.009  0.331
tot    0.504  0.173  0.016  0.692
 
band    11 # energy    8.44076292 # occ.  0.00000000
 
ion      s      p      d    tot
    1  0.000  0.366  0.015  0.381
    2  0.000  0.062  0.069  0.131
tot    0.000  0.428  0.084  0.512
 
band    12 # energy    8.44099321 # occ.  0.00000000
 
ion      s      p      d    tot
    1  0.000  0.366  0.015  0.381
    2  0.000  0.062  0.069  0.131
tot    0.000  0.428  0.084  0.512
 
band    13 # energy    8.53001523 # occ.  0.00000000
 
ion      s      p      d    tot
    1  0.051  0.238  0.024  0.313
    2  0.037  0.122  0.051  0.211
tot    0.089  0.360  0.074  0.524
 

 k-point     4 :    0.00000000 0.00000000 0.12500000     weight = 0.00390625

band     1 # energy  -14.38577565 # occ.  2.00000000
 
ion      s      p      d    tot
    1  0.000  0.000  0.983  0.983
    2  0.002  0.002  0.000  0.005
tot    0.002  0.002  0.983  0.988
 
band     2 # energy  -14.37506749 # occ.  2.00000000
 
ion      s      p      d    tot
    1  0.000  0.000  0.986  0.986
    2  0.000  0.003  0.000  0.003
tot    0.000  0.003  0.986  0.989
 
band     3 # energy  -14.37506410 # occ.  2.00000000
 
ion      s      p      d    tot
    1  0.000  0.000  0.986  0.986
    2  0.000  0.003  0.000  0.003
tot    0.000  0.003  0.986  0.989
 
band     4 # energy  -14.29816193 # occ.  2.00000000
 
ion      s      p      d    tot
    1  0.000  0.000  0.991  0.991
    2  0.000  0.000  0.000  0.000
tot    0.000  0.000  0.991  0.991
 
band     5 # energy  -14.29816079 # occ.  2.00000000
 
ion      s      p      d    tot
    1  0.000  0.000  0.991  0.991
    2  0.000  0.000  0.000  0.000
tot    0.000  0.000  0.991  0.991
 
band     6 # energy  -10.54384252 # occ.  2.00000000
 
ion      s      p      d    tot
    1  0.167  0.003  0.003  0.173
    2  0.437  0.002  0.000  0.438
tot    0.604  0.004  0.003  0.612
 
band     7 # energy    1.43092973 # occ.  2.00000000
 
ion      s      p      d    tot
    1  0.135  0.084  0.036  0.255
    2  0.109  0.265  0.006  0.380
tot    0.244  0.349  0.042  0.635
 
band     8 # energy    3.13595021 # occ.  2.00000000
 
ion      s      p      d    tot
    1  0.000  0.120  0.053  0.173
    2  0.000  0.433  0.007  0.440
tot    0.000  0.553  0.060  0.613
 
band     9 # energy    3.13599565 # occ.  2.00000000
 
ion      s      p      d    tot
    1  0.000  0.120  0.053  0.173
    2  0.000  0.433  0.007  0.440
tot    0.000  0.553  0.060  0.613
 
band    10 # energy    5.91000155 # occ.  0.00000000
 
ion      s      p      d    tot
    1  0.285  0.069  0.006  0.361
    2  0.219  0.103  0.009  0.331
tot    0.504  0.173  0.016  0.692
 
band    11 # energy    8.44076365 # occ.  0.00000000
 
ion      s      p      d    tot
    1  0.000  0.366  0.015  0.381
    2  0.000  0.062  0.069  0.131
tot    0.000  0.428  0.084  0.512
 
band    12 # energy    8.44099244 # occ.  0.00000000
 
ion      s      p      d    tot
    1  0.000  0.366  0.015  0.381
    2  0.000  0.062  0.069  0.131
tot    0.000  0.428  0.084  0.512
 
band    13 # energy    8.53001526 # occ.  0.00000000
 
ion      s      p      d    tot
    1  0.051  0.238  0.024  0.313
    2  0.037  0.122  0.051  0.211
tot    0.089  0.360  0.074  0.524
 

 k-point     5 :    0.12500000 0.12500000 0.12500000     weight = 0.00390625

band     1 # energy  -14.38577027 # occ.  2.00000000
 
ion      s      p      d    tot
    1  0.000  0.000  0.983  0.983
    2  0.002  0.002  0.000  0.005
tot    0.002  0.002  0.983  0.988
 
band     2 # energy  -14.37507059 # occ.  2.00000000
 
ion      s      p      d    tot
    1  0.000  0.000  0.986  0.986
    2  0.000  0.003  0.000  0.003
tot    0.000  0.003  0.986  0.989
 
band     3 # energy  -14.37506898 # occ.  2.00000000
 
ion      s      p      d    tot
    1  0.000  0.000  0.986  0.986
    2  0.000  0.003  0.000  0.003
tot    0.000  0.003  0.986  0.989
 
band     4 # energy  -14.29816230 # occ.  2.00000000
 
ion      s      p      d    tot
    1  0.000  0.000  0.991  0.991
    2  0.000  0.000  0.000  0.000
tot    0.000  0.000  0.991  0.991
 
band     5 # energy  -14.29816101 # occ.  2.00000000
 
ion      s      p      d    tot
    1  0.000  0.000  0.991  0.991
    2  0.000  0.000  0.000  0.000
tot    0.000  0.000  0.991  0.991
 
band     6 # energy  -10.54385232 # occ.  2.00000000
 
ion      s      p      d    tot
    1  0.167  0.003  0.003  0.173
    2  0.437  0.002  0.000  0.438
tot    0.604  0.004  0.003  0.612
 
band     7 # energy    1.43084255 # occ.  2.00000000
 
ion      s      p      d    tot
    1  0.135  0.084  0.036  0.255
    2  0.109  0.265  0.006  0.380
tot    0.244  0.349  0.042  0.635
 
band     8 # energy    3.13602180 # occ.  2.00000000
 
ion      s      p      d    tot
    1  0.000  0.120  0.053  0.173
    2  0.000  0.433  0.007  0.440
tot    0.000  0.553  0.060  0.613
 
band     9 # energy    3.13602242 # occ.  2.00000000
 
ion      s      p      d    tot
    1  0.000  0.120  0.053  0.173
    2  0.000  0.433  0.007  0.440
tot    0.000  0.553  0.060  0.613
 
band    10 # energy    5.91010427 # occ.  0.00000000
 
ion      s      p      d    tot
    1  0.285  0.069  0.006  0.361
    2  0.219  0.103  0.009  0.332
tot    0.504  0.173  0.016  0.692
 
band    11 # energy    8.44095929 # occ.  0.00000000
 
ion      s      p      d    tot
    1  0.000  0.366  0.015  0.381
    2  0.000  0.062  0.069  0.131
tot    0.000  0.428  0.084  0.512
 
band    12 # energy    8.44096062 # occ.  0.00000000
 
ion      s      p      d    tot
    1  0.000  0.366  0.015  0.381
    2  0.000  0.062  0.069  0.131
tot    0.000  0.428  0.084  0.512
 
band    13 # energy    8.52984091 # occ.  0.00000000
 
ion      s      p      d    tot
    1  0.051  0.238  0.024  0.313
    2  0.037  0.122  0.051  0.211
tot    0.089  0.360  0.074  0.524
 

 k-point     6 :    0.25000000 0.00000000 0.00000000     weight = 0.00390625

band     1 # energy  -14.40331945 # occ.  2.00000000
 
ion      s      p      d    tot
    1  0.000  0.000  0.977  0.978
    2  0.007  0.001  0.000  0.009
tot    0.007  0.001  0.977  0.986
 
band     2 # energy  -14.36813815 # occ.  2.00000000
 
ion      s      p      d    tot
    1  0.000  0.000  0.987  0.987
    2  0.000  0.002  0.000  0.003
tot    0.000  0.002  0.987  0.990
 
band     3 # energy  -14.36813348 # occ.  2.00000000
 
ion      s      p      d    tot
    1  0.000  0.000  0.987  0.987
    2  0.000  0.002  0.000  0.003
tot    0.000  0.002  0.987  0.990
 
band     4 # energy  -14.29793520 # occ.  2.00000000
 
ion      s      p      d    tot
    1  0.000  0.000  0.991  0.991
    2  0.000  0.000  0.000  0.000
tot    0.000  0.000  0.991  0.991
 
band     5 # energy  -14.29793310 # occ.  2.00000000
 
ion      s      p      d    tot
    1  0.000  0.000  0.991  0.991
    2  0.000  0.000  0.000  0.000
tot    0.000  0.000  0.991  0.991
 
band     6 # energy   -9.98924163 # occ.  2.00000000
 
ion      s      p      d    tot
    1  0.148  0.011  0.011  0.170
    2  0.451  0.005  0.000  0.456
tot    0.599  0.016  0.012  0.627
 
band     7 # energy   -1.04259708 # occ.  2.00000000
 
ion      s      p      d    tot
    1  0.182  0.079  0.021  0.282
    2  0.107  0.202  0.005  0.314
tot    0.288  0.281  0.026  0.596
 
band     8 # energy    2.65936952 # occ.  2.00000000
 
ion      s      p      d    tot
    1  0.000  0.147  0.040  0.188
    2  0.000  0.404  0.006  0.410
tot    0.000  0.551  0.047  0.598
 
band     9 # energy    2.65939410 # occ.  2.00000000
 
ion      s      p      d    tot
    1  0.000  0.147  0.040  0.188
    2  0.000  0.404  0.006  0.410
tot    0.000  0.551  0.047  0.598
 
band    10 # energy    5.76219093 # occ.  0.00000000
 
ion      s      p      d    tot
    1  0.271  0.088  0.010  0.368
    2  0.159  0.054  0.023  0.236
tot    0.430  0.142  0.033  0.604
 
band    11 # energy    8.98884190 # occ.  0.00000000
 
ion      s      p      d    tot
    1  0.000  0.316  0.031  0.347
    2  0.000  0.080  0.069  0.149
tot    0.000  0.396  0.100  0.496
 
band    12 # energy    8.98905157 # occ.  0.00000000
 
ion      s      p      d    tot
    1  0.000  0.316  0.031  0.347
    2  0.000  0.080  0.069  0.149
tot    0.000  0.396  0.100  0.496
 
band    13 # energy   10.45319771 # occ.  0.00000000
 
ion      s      p      d    tot
    1  0.082  0.125  0.026  0.233
    2  0.067  0.235  0.026  0.327
tot    0.149  0.360  0.051  0.560
 

 k-point     7 :    0.00000000 0.25000000 0.00000000     weight = 0.00390625

band     1 # energy  -14.40331945 # occ.  2.00000000
 
ion      s      p      d    tot
    1  0.000  0.000  0.977  0.978
    2  0.007  0.001  0.000  0.009
tot    0.007  0.001  0.977  0.986
 
band     2 # energy  -14.36813836 # occ.  2.00000000
 
ion      s      p      d    tot
    1  0.000  0.000  0.987  0.987
    2  0.000  0.002  0.000  0.003
tot    0.000  0.002  0.987  0.990
 
band     3 # energy  -14.36813327 # occ.  2.00000000
 
ion      s      p      d    tot
    1  0.000  0.000  0.987  0.987
    2  0.000  0.002  0.000  0.003
tot    0.000  0.002  0.987  0.990
 
band     4 # energy  -14.29793490 # occ.  2.00000000
 
ion      s      p      d    tot
    1  0.000  0.000  0.991  0.991
    2  0.000  0.000  0.000  0.000
tot    0.000  0.000  0.991  0.991
 
band     5 # energy  -14.29793340 # occ.  2.00000000
 
ion      s      p      d    tot
    1  0.000  0.000  0.991  0.991
    2  0.000  0.000  0.000  0.000
tot    0.000  0.000  0.991  0.991
 
band     6 # energy   -9.98924164 # occ.  2.00000000
 
ion      s      p      d    tot
    1  0.148  0.011  0.011  0.170
    2  0.451  0.005  0.000  0.456
tot    0.599  0.016  0.012  0.627
 
band     7 # energy   -1.04259706 # occ.  2.00000000
 
ion      s      p      d    tot
    1  0.182  0.079  0.021  0.282
    2  0.107  0.202  0.005  0.314
tot    0.288  0.281  0.026  0.596
 
band     8 # energy    2.65936908 # occ.  2.00000000
 
ion      s      p      d    tot
    1  0.000  0.147  0.040  0.188
    2  0.000  0.404  0.006  0.410
tot    0.000  0.551  0.047  0.598
 
band     9 # energy    2.65939456 # occ.  2.00000000
 
ion      s      p      d    tot
    1  0.000  0.147  0.040  0.188
    2  0.000  0.404  0.006  0.410
tot    0.000  0.551  0.047  0.598
 
band    10 # energy    5.76219089 # occ.  0.00000000
 
ion      s      p      d    tot
    1  0.271  0.088  0.010  0.368
    2  0.159  0.054  0.023  0.236
tot    0.430  0.142  0.033  0.604
 
band    11 # energy    8.98884069 # occ.  0.00000000
 
ion      s      p      d    tot
    1  0.000  0.316  0.031  0.347
    2  0.000  0.080  0.069  0.149
tot    0.000  0.396  0.100  0.496
 
band    12 # energy    8.98905271 # occ.  0.00000000
 
ion      s      p      d    tot
    1  0.000  0.316  0.031  0.347
    2  0.000  0.080  0.069  0.149
tot    0.000  0.396  0.100  0.496
 
band    13 # energy   10.45319772 # occ.  0.00000000
 
ion      s      p      d    tot
    1  0.082  0.125  0.026  0.233
    2  0.067  0.235  0.026  0.327
tot    0.149  0.360  0.051  0.560
 

 k-point     8 :    0.00000000 0.00000000 0.25000000     weight = 0.00390625

band     1 # energy  -14.40331945 # occ.  2.00000000
 
ion      s      p      d    tot
    1  0.000  0.000  0.977  0.978
    2  0.007  0.001  0.000  0.009
tot    0.007  0.001  0.977  0.986
 
band     2 # energy  -14.36813699 # occ.  2.00000000
 
ion      s      p      d    tot
    1  0.000  0.000  0.987  0.987
    2  0.000  0.002  0.000  0.003
tot    0.000  0.002  0.987  0.990
 
band     3 # energy  -14.36813464 # occ.  2.00000000
 
ion      s      p      d    tot
    1  0.000  0.000  0.987  0.987
    2  0.000  0.002  0.000  0.003
tot    0.000  0.002  0.987  0.990
 
band     4 # energy  -14.29793453 # occ.  2.00000000
 
ion      s      p      d    tot
    1  0.000  0.000  0.991  0.991
    2  0.000  0.000  0.000  0.000
tot    0.000  0.000  0.991  0.991
 
band     5 # energy  -14.29793377 # occ.  2.00000000
 
ion      s      p      d    tot
    1  0.000  0.000  0.991  0.991
    2  0.000  0.000  0.000  0.000
tot    0.000  0.000  0.991  0.991
 
band     6 # energy   -9.98924163 # occ.  2.00000000
 
ion      s      p      d    tot
    1  0.148  0.011  0.011  0.170
    2  0.451  0.005  0.000  0.456
tot    0.599  0.016  0.012  0.627
 
band     7 # energy   -1.04259705 # occ.  2.00000000
 
ion      s      p      d    tot
    1  0.182  0.079  0.021  0.282
    2  0.107  0.202  0.005  0.314
tot    0.288  0.281  0.026  0.596
 
band     8 # energy    2.65936957 # occ.  2.00000000
 
ion      s      p      d    tot
    1  0.000  0.147  0.040  0.188
    2  0.000  0.404  0.006  0.410
tot    0.000  0.551  0.047  0.598
 
band     9 # energy    2.65939403 # occ.  2.00000000
 
ion      s      p      d    tot
    1  0.000  0.147  0.040  0.188
    2  0.000  0.404  0.006  0.410
tot    0.000  0.551  0.047  0.598
 
band    10 # energy    5.76219087 # occ.  0.00000000
 
ion      s      p      d    tot
    1  0.271  0.088  0.010  0.368
    2  0.159  0.054  0.023  0.236
tot    0.430  0.142  0.033  0.604
 
band    11 # energy    8.98884141 # occ.  0.00000000
 
ion      s      p      d    tot
    1  0.000  0.316  0.031  0.347
    2  0.000  0.080  0.069  0.149
tot    0.000  0.396  0.100  0.496
 
band    12 # energy    8.98905197 # occ.  0.00000000
 
ion      s      p      d    tot
    1  0.000  0.316  0.031  0.347
    2  0.000  0.080  0.069  0.149
tot    0.000  0.396  0.100  0.496
 
band    13 # energy   10.45319773 # occ.  0.00000000
 
ion      s      p      d    tot
    1  0.082  0.125  0.026  0.233
    2  0.067  0.235  0.026  0.327
tot    0.149  0.360  0.051  0.560
 

 k-point     9 :    0.25000000 0.25000000 0.25000000     weight = 0.00390625

band     1 # energy  -14.40331301 # occ.  2.00000000
 
ion      s      p      d    tot
    1  0.000  0.000  0.977  0.978
    2  0.007  0.001  0.000  0.009
tot    0.007  0.001  0.977  0.986
 
band     2 # energy  -14.36814283 # occ.  2.00000000
 
ion      s      p      d    tot
    1  0.000  0.000  0.987  0.987
    2  0.000  0.002  0.000  0.003
tot    0.000  0.002  0.987  0.990
 
band     3 # energy  -14.36814123 # occ.  2.00000000
 
ion      s      p      d    tot
    1  0.000  0.000  0.987  0.987
    2  0.000  0.002  0.000  0.003
tot    0.000  0.002  0.987  0.990
 
band     4 # energy  -14.29793480 # occ.  2.00000000
 
ion      s      p      d    tot
    1  0.000  0.000  0.991  0.991
    2  0.000  0.000  0.000  0.000
tot    0.000  0.000  0.991  0.991
 
band     5 # energy  -14.29793351 # occ.  2.00000000
 
ion      s      p      d    tot
    1  0.000  0.000  0.991  0.991
    2  0.000  0.000  0.000  0.000
tot    0.000  0.000  0.991  0.991
 
band     6 # energy   -9.98928022 # occ.  2.00000000
 
ion      s      p      d    tot
    1  0.148  0.011  0.011  0.170
    2  0.451  0.005  0.000  0.456
tot    0.599  0.016  0.012  0.627
 
band     7 # energy   -1.04266501 # occ.  2.00000000
 
ion      s      p      d    tot
    1  0.182  0.079  0.021  0.282
    2  0.107  0.202  0.005  0.314
tot    0.288  0.281  0.026  0.596
 
band     8 # energy    2.65946379 # occ.  2.00000000
 
ion      s      p      d    tot
    1  0.000  0.147  0.040  0.188
    2  0.000  0.404  0.006  0.410
tot    0.000  0.551  0.047  0.598
 
band     9 # energy    2.65946445 # occ.  2.00000000
 
ion      s      p      d    tot
    1  0.000  0.147  0.040  0.188
    2  0.000  0.404  0.006  0.410
tot    0.000  0.551  0.047  0.598
 
band    10 # energy    5.76234361 # occ.  0.00000000
 
ion      s      p      d    tot
    1  0.271  0.088  0.010  0.368
    2  0.159  0.054  0.023  0.236
tot    0.430  0.142  0.033  0.604
 
band    11 # energy    8.98899445 # occ.  0.00000000
 
ion      s      p      d    tot
    1  0.000  0.316  0.031  0.347
    2  0.000  0.080  0.069  0.149
tot    0.000  0.396  0.100  0.496
 
band    12 # energy    8.98899584 # occ.  0.00000000
 
ion      s      p      d    tot
    1  0.000  0.316  0.031  0.347
    2  0.000  0.080  0.069  0.149
tot    0.000  0.396  0.100  0.496
 
band    13 # energy   10.45311583 # occ.  0.00000000
 
ion      s      p      d    tot
    1  0.082  0.125  0.026  0.233
    2  0.067  0.235  0.026  0.327
tot    0.149  0.360  0.051  0.560
 

 k-point    10 :    0.37500000 0.00000000 0.00000000     weight = 0.00390625

band     1 # energy  -14.42058743 # occ.  2.00000000
 
ion      s      p      d    tot
    1  0.000  0.000  0.972  0.973
    2  0.011  0.000  0.000  0.012
tot    0.012  0.001  0.972  0.985
 
band     2 # energy  -14.36222422 # occ.  2.00000000
 
ion      s      p      d    tot
    1  0.000  0.000  0.987  0.987
    2  0.000  0.002  0.000  0.002
tot    0.000  0.002  0.988  0.990
 
band     3 # energy  -14.36222062 # occ.  2.00000000
 
ion      s      p      d    tot
    1  0.000  0.000  0.987  0.987
    2  0.000  0.002  0.000  0.002
tot    0.000  0.002  0.988  0.990
 
band     4 # energy  -14.29639697 # occ.  2.00000000
 
ion      s      p      d    tot
    1  0.000  0.000  0.991  0.991
    2  0.000  0.000  0.000  0.000
tot    0.000  0.000  0.991  0.991
 
band     5 # energy  -14.29639390 # occ.  2.00000000
 
ion      s      p      d    tot
    1  0.000  0.000  0.991  0.991
    2  0.000  0.000  0.000  0.000
tot    0.000  0.000  0.991  0.991
 
band     6 # energy   -9.24031393 # occ.  2.00000000
 
ion      s      p      d    tot
    1  0.115  0.022  0.022  0.159
    2  0.490  0.005  0.001  0.495
tot    0.604  0.027  0.022  0.654
 
band     7 # energy   -3.03212558 # occ.  2.00000000
 
ion      s      p      d    tot
    1  0.227  0.068  0.008  0.303
    2  0.068  0.176  0.003  0.248
tot    0.295  0.244  0.011  0.550
 
band     8 # energy    2.28350096 # occ.  2.00000000
 
ion      s      p      d    tot
    1  0.000  0.164  0.031  0.195
    2  0.000  0.389  0.005  0.394
tot    0.000  0.553  0.037  0.589
 
band     9 # energy    2.28350656 # occ.  2.00000000
 
ion      s      p      d    tot
    1  0.000  0.164  0.031  0.195
    2  0.000  0.389  0.005  0.394
tot    0.000  0.553  0.037  0.589
 
band    10 # energy    5.40389963 # occ.  0.00000000
 
ion      s      p      d    tot
    1  0.288  0.061  0.016  0.365
    2  0.153  0.041  0.027  0.220
tot    0.441  0.102  0.043  0.586
 
band    11 # energy    9.05662280 # occ.  0.00000000
 
ion      s      p      d    tot
    1  0.000  0.249  0.048  0.296
    2  0.000  0.068  0.072  0.140
tot    0.000  0.317  0.120  0.437
 
band    12 # energy    9.05681065 # occ.  0.00000000
 
ion      s      p      d    tot
    1  0.000  0.249  0.048  0.296
    2  0.000  0.068  0.072  0.140
tot    0.000  0.317  0.120  0.437
 
band    13 # energy   12.14400486 # occ.  0.00000000
 
ion      s      p      d    tot
    1  0.003  0.073  0.030  0.106
    2  0.012  0.191  0.006  0.210
tot    0.015  0.264  0.037  0.316
 

 k-point    11 :    0.00000000 0.37500000 0.00000000     weight = 0.00390625

band     1 # energy  -14.42058743 # occ.  2.00000000
 
ion      s      p      d    tot
    1  0.000  0.000  0.972  0.973
    2  0.011  0.000  0.000  0.012
tot    0.012  0.001  0.972  0.985
 
band     2 # energy  -14.36222439 # occ.  2.00000000
 
ion      s      p      d    tot
    1  0.000  0.000  0.987  0.987
    2  0.000  0.002  0.000  0.002
tot    0.000  0.002  0.988  0.990
 
band     3 # energy  -14.36222046 # occ.  2.00000000
 
ion      s      p      d    tot
    1  0.000  0.000  0.987  0.987
    2  0.000  0.002  0.000  0.002
tot    0.000  0.002  0.988  0.990
 
band     4 # energy  -14.29639655 # occ.  2.00000000
 
ion      s      p      d    tot
    1  0.000  0.000  0.991  0.991
    2  0.000  0.000  0.000  0.000
tot    0.000  0.000  0.991  0.991
 
band     5 # energy  -14.29639432 # occ.  2.00000000
 
ion      s      p      d    tot
    1  0.000  0.000  0.991  0.991
    2  0.000  0.000  0.000  0.000
tot    0.000  0.000  0.991  0.991
 
band     6 # energy   -9.24031393 # occ.  2.00000000
 
ion      s      p      d    tot
    1  0.115  0.022  0.022  0.159
    2  0.490  0.005  0.001  0.495
tot    0.604  0.027  0.022  0.654
 
band     7 # energy   -3.03212556 # occ.  2.00000000
 
ion      s      p      d    tot
    1  0.227  0.068  0.008  0.303
    2  0.068  0.176  0.003  0.248
tot    0.295  0.244  0.011  0.550
 
band     8 # energy    2.28350044 # occ.  2.00000000
 
ion      s      p      d    tot
    1  0.000  0.164  0.031  0.195
    2  0.000  0.389  0.005  0.394
tot    0.000  0.553  0.037  0.589
 
band     9 # energy    2.28350712 # occ.  2.00000000
 
ion      s      p      d    tot
    1  0.000  0.164  0.031  0.195
    2  0.000  0.389  0.005  0.394
tot    0.000  0.553  0.037  0.589
 
band    10 # energy    5.40389959 # occ.  0.00000000
 
ion      s      p      d    tot
    1  0.288  0.061  0.016  0.365
    2  0.153  0.041  0.027  0.220
tot    0.441  0.102  0.043  0.586
 
band    11 # energy    9.05662151 # occ.  0.00000000
 
ion      s      p      d    tot
    1  0.000  0.249  0.048  0.296
    2  0.000  0.068  0.072  0.140
tot    0.000  0.317  0.120  0.437
 
band    12 # energy    9.05681185 # occ.  0.00000000
 
ion      s      p      d    tot
    1  0.000  0.249  0.048  0.296
    2  0.000  0.068  0.072  0.140
tot    0.000  0.317  0.120  0.437
 
band    13 # energy   12.14400486 # occ.  0.00000000
 
ion      s      p      d    tot
    1  0.003  0.073  0.030  0.106
    2  0.012  0.191  0.006  0.210
tot    0.015  0.264  0.037  0.316
 

 k-point    12 :    0.00000000 0.00000000 0.37500000     weight = 0.00390625

band     1 # energy  -14.42058744 # occ.  2.00000000
 
ion      s      p      d    tot
    1  0.000  0.000  0.972  0.973
    2  0.011  0.000  0.000  0.012
tot    0.012  0.001  0.972  0.985
 
band     2 # energy  -14.36222303 # occ.  2.00000000
 
ion      s      p      d    tot
    1  0.000  0.000  0.987  0.987
    2  0.000  0.002  0.000  0.002
tot    0.000  0.002  0.988  0.990
 
band     3 # energy  -14.36222182 # occ.  2.00000000
 
ion      s      p      d    tot
    1  0.000  0.000  0.987  0.987
    2  0.000  0.002  0.000  0.002
tot    0.000  0.002  0.988  0.990
 
band     4 # energy  -14.29639596 # occ.  2.00000000
 
ion      s      p      d    tot
    1  0.000  0.000  0.991  0.991
    2  0.000  0.000  0.000  0.000
tot    0.000  0.000  0.991  0.991
 
band     5 # energy  -14.29639490 # occ.  2.00000000
 
ion      s      p      d    tot
    1  0.000  0.000  0.991  0.991
    2  0.000  0.000  0.000  0.000
tot    0.000  0.000  0.991  0.991
 
band     6 # energy   -9.24031391 # occ.  2.00000000
 
ion      s      p      d    tot
    1  0.115  0.022  0.022  0.159
    2  0.490  0.005  0.001  0.495
tot    0.604  0.027  0.022  0.654
 
band     7 # energy   -3.03212557 # occ.  2.00000000
 
ion      s      p      d    tot
    1  0.227  0.068  0.008  0.303
    2  0.068  0.176  0.003  0.248
tot    0.295  0.244  0.011  0.550
 
band     8 # energy    2.28350090 # occ.  2.00000000
 
ion      s      p      d    tot
    1  0.000  0.164  0.031  0.195
    2  0.000  0.389  0.005  0.394
tot    0.000  0.553  0.037  0.589
 
band     9 # energy    2.28350660 # occ.  2.00000000
 
ion      s      p      d    tot
    1  0.000  0.164  0.031  0.195