unknown system                          
            1
     0.000000    2.875091    2.875091
     2.875091    0.000000    2.875091
     2.875091    2.875091    0.000000
   Ga   As
     1     1
Direct configuration=     1
   0.00000000  0.00000000  0.00000000
   0.25000000  0.25000000  0.25000000
unknown system                          
            1
     0.000048    2.810769    2.810769
     2.810769    0.000048    2.810769
     2.810769    2.810769    0.000048
   Ga   As
     1     1
Direct configuration=     2
   0.00000016  0.00000016  0.00000016
   0.24999984  0.24999984  0.24999984
unknown system                          
            1
     0.000032    2.831428    2.831428
     2.831428    0.000032    2.831428
     2.831428    2.831428    0.000032
   Ga   As
     1     1
Direct configuration=     3
   0.00000011  0.00000011  0.00000011
   0.24999989  0.24999989  0.24999989
