   5   5   1   0
  0.2596811E+02  0.4437201E-09  0.4437201E-09  0.7614853E-09  0.5000000E-15
   1.0000000000000000E-004
  CAR 
 unknown system                          
     11.88494168    -28.66757859  301      2.71216834      1.00000000
    -28.668  0.0000E+00  0.0000E+00
    -28.532  0.0000E+00  0.0000E+00
    -28.397  0.0000E+00  0.0000E+00
    -28.262  0.0000E+00  0.0000E+00
    -28.127  0.0000E+00  0.0000E+00
    -27.992  0.0000E+00  0.0000E+00
    -27.857  0.0000E+00  0.0000E+00
    -27.721  0.0000E+00  0.0000E+00
    -27.586  0.0000E+00  0.0000E+00
    -27.451  0.0000E+00  0.0000E+00
    -27.316  0.0000E+00  0.0000E+00
    -27.181  0.0000E+00  0.0000E+00
    -27.045  0.0000E+00  0.0000E+00
    -26.910  0.0000E+00  0.0000E+00
    -26.775  0.1480E+00  0.2000E-01
    -26.640  0.0000E+00  0.2000E-01
    -26.505  0.0000E+00  0.2000E-01
    -26.370  0.0000E+00  0.2000E-01
    -26.234  0.0000E+00  0.2000E-01
    -26.099  0.0000E+00  0.2000E-01
    -25.964  0.0000E+00  0.2000E-01
    -25.829  0.0000E+00  0.2000E-01
    -25.694  0.0000E+00  0.2000E-01
    -25.559  0.0000E+00  0.2000E-01
    -25.423  0.0000E+00  0.2000E-01
    -25.288  0.0000E+00  0.2000E-01
    -25.153  0.0000E+00  0.2000E-01
    -25.018  0.0000E+00  0.2000E-01
    -24.883  0.0000E+00  0.2000E-01
    -24.748  0.0000E+00  0.2000E-01
    -24.612  0.0000E+00  0.2000E-01
    -24.477  0.0000E+00  0.2000E-01
    -24.342  0.0000E+00  0.2000E-01
    -24.207  0.0000E+00  0.2000E-01
    -24.072  0.0000E+00  0.2000E-01
    -23.936  0.0000E+00  0.2000E-01
    -23.801  0.0000E+00  0.2000E-01
    -23.666  0.0000E+00  0.2000E-01
    -23.531  0.0000E+00  0.2000E-01
    -23.396  0.0000E+00  0.2000E-01
    -23.261  0.0000E+00  0.2000E-01
    -23.125  0.0000E+00  0.2000E-01
    -22.990  0.0000E+00  0.2000E-01
    -22.855  0.0000E+00  0.2000E-01
    -22.720  0.0000E+00  0.2000E-01
    -22.585  0.0000E+00  0.2000E-01
    -22.450  0.0000E+00  0.2000E-01
    -22.314  0.0000E+00  0.2000E-01
    -22.179  0.0000E+00  0.2000E-01
    -22.044  0.0000E+00  0.2000E-01
    -21.909  0.0000E+00  0.2000E-01
    -21.774  0.0000E+00  0.2000E-01
    -21.638  0.0000E+00  0.2000E-01
    -21.503  0.0000E+00  0.2000E-01
    -21.368  0.0000E+00  0.2000E-01
    -21.233  0.0000E+00  0.2000E-01
    -21.098  0.0000E+00  0.2000E-01
    -20.963  0.0000E+00  0.2000E-01
    -20.827  0.0000E+00  0.2000E-01
    -20.692  0.0000E+00  0.2000E-01
    -20.557  0.0000E+00  0.2000E-01
    -20.422  0.0000E+00  0.2000E-01
    -20.287  0.0000E+00  0.2000E-01
    -20.152  0.0000E+00  0.2000E-01
    -20.016  0.0000E+00  0.2000E-01
    -19.881  0.0000E+00  0.2000E-01
    -19.746  0.0000E+00  0.2000E-01
    -19.611  0.0000E+00  0.2000E-01
    -19.476  0.0000E+00  0.2000E-01
    -19.340  0.0000E+00  0.2000E-01
    -19.205  0.0000E+00  0.2000E-01
    -19.070  0.0000E+00  0.2000E-01
    -18.935  0.0000E+00  0.2000E-01
    -18.800  0.0000E+00  0.2000E-01
    -18.665  0.0000E+00  0.2000E-01
    -18.529  0.0000E+00  0.2000E-01
    -18.394  0.0000E+00  0.2000E-01
    -18.259  0.0000E+00  0.2000E-01
    -18.124  0.0000E+00  0.2000E-01
    -17.989  0.0000E+00  0.2000E-01
    -17.854  0.0000E+00  0.2000E-01
    -17.718  0.0000E+00  0.2000E-01
    -17.583  0.0000E+00  0.2000E-01
    -17.448  0.0000E+00  0.2000E-01
    -17.313  0.0000E+00  0.2000E-01
    -17.178  0.0000E+00  0.2000E-01
    -17.043  0.0000E+00  0.2000E-01
    -16.907  0.0000E+00  0.2000E-01
    -16.772  0.0000E+00  0.2000E-01
    -16.637  0.0000E+00  0.2000E-01
    -16.502  0.0000E+00  0.2000E-01
    -16.367  0.0000E+00  0.2000E-01
    -16.231  0.0000E+00  0.2000E-01
    -16.096  0.0000E+00  0.2000E-01
    -15.961  0.0000E+00  0.2000E-01
    -15.826  0.0000E+00  0.2000E-01
    -15.691  0.0000E+00  0.2000E-01
    -15.556  0.0000E+00  0.2000E-01
    -15.420  0.0000E+00  0.2000E-01
    -15.285  0.0000E+00  0.2000E-01
    -15.150  0.0000E+00  0.2000E-01
    -15.015  0.0000E+00  0.2000E-01
    -14.880  0.0000E+00  0.2000E-01
    -14.745  0.0000E+00  0.2000E-01
    -14.609  0.0000E+00  0.2000E-01
    -14.474  0.0000E+00  0.2000E-01
    -14.339  0.0000E+00  0.2000E-01
    -14.204  0.0000E+00  0.2000E-01
    -14.069  0.0000E+00  0.2000E-01
    -13.933  0.0000E+00  0.2000E-01
    -13.798  0.0000E+00  0.2000E-01
    -13.663  0.0000E+00  0.2000E-01
    -13.528  0.0000E+00  0.2000E-01
    -13.393  0.0000E+00  0.2000E-01
    -13.258  0.0000E+00  0.2000E-01
    -13.122  0.0000E+00  0.2000E-01
    -12.987  0.0000E+00  0.2000E-01
    -12.852  0.0000E+00  0.2000E-01
    -12.717  0.0000E+00  0.2000E-01
    -12.582  0.0000E+00  0.2000E-01
    -12.447  0.0000E+00  0.2000E-01
    -12.311  0.0000E+00  0.2000E-01
    -12.176  0.0000E+00  0.2000E-01
    -12.041  0.0000E+00  0.2000E-01
    -11.906  0.0000E+00  0.2000E-01
    -11.771  0.0000E+00  0.2000E-01
    -11.636  0.0000E+00  0.2000E-01
    -11.500  0.6650E-01  0.2252E-01
    -11.365  0.1153E+00  0.3542E-01
    -11.230  0.1105E+00  0.4110E-01
    -11.095  0.7679E-01  0.5754E-01
    -10.960  0.1778E+00  0.7167E-01
    -10.824  0.4439E-01  0.8000E-01
    -10.689  0.0000E+00  0.8000E-01
    -10.554  0.0000E+00  0.8000E-01
    -10.419  0.0000E+00  0.8000E-01
    -10.284  0.0000E+00  0.8000E-01
    -10.149  0.0000E+00  0.8000E-01
    -10.013  0.0000E+00  0.8000E-01
     -9.878  0.0000E+00  0.8000E-01
     -9.743  0.0000E+00  0.8000E-01
     -9.608  0.0000E+00  0.8000E-01
     -9.473  0.0000E+00  0.8000E-01
     -9.338  0.0000E+00  0.8000E-01
     -9.202  0.0000E+00  0.8000E-01
     -9.067  0.0000E+00  0.8000E-01
     -8.932  0.1276E-02  0.8002E-01
     -8.797  0.1104E-01  0.8076E-01
     -8.662  0.2382E-01  0.8294E-01
     -8.526  0.1497E+00  0.9878E-01
     -8.391  0.2104E+00  0.1164E+00
     -8.256  0.7003E-02  0.1200E+00
     -8.121  0.0000E+00  0.1200E+00
     -7.986  0.0000E+00  0.1200E+00
     -7.851  0.0000E+00  0.1200E+00
     -7.715  0.0000E+00  0.1200E+00
     -7.580  0.0000E+00  0.1200E+00
     -7.445  0.0000E+00  0.1200E+00
     -7.310  0.0000E+00  0.1200E+00
     -7.175  0.3910E+00  0.1538E+00
     -7.040  0.3625E+00  0.1908E+00
     -6.904  0.9891E+00  0.2420E+00
     -6.769  0.8542E-01  0.2600E+00
     -6.634  0.2122E+00  0.2860E+00
     -6.499  0.2017E-01  0.2891E+00
     -6.364  0.2245E-01  0.2919E+00
     -6.229  0.3183E-01  0.2954E+00
     -6.093  0.4055E-01  0.3011E+00
     -5.958  0.7046E-01  0.3070E+00
     -5.823  0.9625E-01  0.3189E+00
     -5.688  0.0000E+00  0.3200E+00
     -5.553  0.0000E+00  0.3200E+00
     -5.417  0.0000E+00  0.3200E+00
     -5.282  0.0000E+00  0.3200E+00
     -5.147  0.0000E+00  0.3200E+00
     -5.012  0.0000E+00  0.3200E+00
     -4.877  0.0000E+00  0.3200E+00
     -4.742  0.0000E+00  0.3200E+00
     -4.606  0.0000E+00  0.3200E+00
     -4.471  0.0000E+00  0.3200E+00
     -4.336  0.0000E+00  0.3200E+00
     -4.201  0.0000E+00  0.3200E+00
     -4.066  0.0000E+00  0.3200E+00
     -3.931  0.0000E+00  0.3200E+00
     -3.795  0.0000E+00  0.3200E+00
     -3.660  0.0000E+00  0.3200E+00
     -3.525  0.0000E+00  0.3200E+00
     -3.390  0.0000E+00  0.3200E+00
     -3.255  0.0000E+00  0.3200E+00
     -3.119  0.0000E+00  0.3200E+00
     -2.984  0.0000E+00  0.3200E+00
     -2.849  0.0000E+00  0.3200E+00
     -2.714  0.0000E+00  0.3200E+00
     -2.579  0.0000E+00  0.3200E+00
     -2.444  0.0000E+00  0.3200E+00
     -2.308  0.6708E-03  0.3200E+00
     -2.173  0.7288E-02  0.3205E+00
     -2.038  0.1165E-01  0.3218E+00
     -1.903  0.2410E-01  0.3242E+00
     -1.768  0.3481E-01  0.3283E+00
     -1.633  0.4596E-01  0.3342E+00
     -1.497  0.4132E-01  0.3397E+00
     -1.362  0.4819E-01  0.3458E+00
     -1.227  0.2064E-01  0.3509E+00
     -1.092  0.7982E-02  0.3524E+00
     -0.957  0.6107E-02  0.3533E+00
     -0.822  0.5355E-02  0.3541E+00
     -0.686  0.6271E-02  0.3549E+00
     -0.551  0.6509E-02  0.3557E+00
     -0.416  0.7856E-02  0.3567E+00
     -0.281  0.1040E-01  0.3580E+00
     -0.146  0.1193E-01  0.3595E+00
     -0.010  0.1347E-01  0.3612E+00
      0.125  0.1740E-01  0.3632E+00
      0.260  0.3007E-01  0.3668E+00
      0.395  0.3687E-01  0.3711E+00
      0.530  0.6287E-01  0.3775E+00
      0.665  0.3629E-01  0.3843E+00
      0.801  0.2628E-01  0.3882E+00
      0.936  0.3635E-01  0.3919E+00
      1.071  0.4196E-01  0.3979E+00
      1.206  0.3589E-01  0.4029E+00
      1.341  0.3861E-01  0.4078E+00
      1.476  0.4827E-01  0.4138E+00
      1.612  0.4417E-01  0.4201E+00
      1.747  0.4223E-01  0.4259E+00
      1.882  0.3200E-01  0.4310E+00
      2.017  0.2081E-01  0.4345E+00
      2.152  0.1450E-01  0.4368E+00
      2.288  0.8171E-02  0.4384E+00
      2.423  0.5448E-02  0.4393E+00
      2.558  0.2215E-02  0.4399E+00
      2.693  0.3095E-04  0.4400E+00
      2.828  0.0000E+00  0.4400E+00
      2.963  0.0000E+00  0.4400E+00
      3.099  0.0000E+00  0.4400E+00
      3.234  0.0000E+00  0.4400E+00
      3.369  0.0000E+00  0.4400E+00
      3.504  0.0000E+00  0.4400E+00
      3.639  0.0000E+00  0.4400E+00
      3.774  0.0000E+00  0.4400E+00
      3.910  0.0000E+00  0.4400E+00
      4.045  0.0000E+00  0.4400E+00
      4.180  0.4984E-05  0.4400E+00
      4.315  0.5119E-03  0.4400E+00
      4.450  0.5204E-02  0.4402E+00
      4.585  0.1277E-01  0.4416E+00
      4.721  0.1673E-01  0.4436E+00
      4.856  0.2000E-01  0.4461E+00
      4.991  0.2373E-01  0.4491E+00
      5.126  0.2701E-01  0.4526E+00
      5.261  0.3707E-01  0.4564E+00
      5.397  0.1600E-01  0.4592E+00
      5.532  0.1567E-01  0.4613E+00
      5.667  0.2478E-01  0.4638E+00
      5.802  0.2644E-01  0.4672E+00
      5.937  0.4086E-01  0.4714E+00
      6.072  0.4219E-01  0.4776E+00
      6.208  0.3553E-01  0.4828E+00
      6.343  0.3255E-01  0.4872E+00
      6.478  0.3923E-01  0.4917E+00
      6.613  0.5569E-01  0.4985E+00
      6.748  0.4176E-01  0.5050E+00
      6.883  0.3354E-01  0.5099E+00
      7.019  0.3284E-01  0.5145E+00
      7.154  0.3140E-01  0.5187E+00
      7.289  0.3395E-01  0.5230E+00
      7.424  0.3187E-01  0.5276E+00
      7.559  0.3282E-01  0.5319E+00
      7.695  0.3831E-01  0.5366E+00
      7.830  0.3836E-01  0.5420E+00
      7.965  0.3214E-01  0.5468E+00
      8.100  0.3474E-01  0.5511E+00
      8.235  0.3978E-01  0.5562E+00
      8.370  0.4227E-01  0.5619E+00
      8.506  0.3387E-01  0.5673E+00
      8.641  0.2189E-01  0.5709E+00
      8.776  0.2214E-01  0.5738E+00
      8.911  0.3183E-01  0.5780E+00
      9.046  0.3204E-01  0.5822E+00
      9.181  0.5316E-01  0.5873E+00
      9.317  0.1620E-01  0.5905E+00
      9.452  0.1363E-01  0.5924E+00
      9.587  0.1651E-01  0.5943E+00
      9.722  0.1870E-01  0.5972E+00
      9.857  0.9892E-02  0.5994E+00
      9.992  0.1025E-02  0.6000E+00
     10.128  0.0000E+00  0.6000E+00
     10.263  0.0000E+00  0.6000E+00
     10.398  0.0000E+00  0.6000E+00
     10.533  0.0000E+00  0.6000E+00
     10.668  0.0000E+00  0.6000E+00
     10.804  0.0000E+00  0.6000E+00
     10.939  0.0000E+00  0.6000E+00
     11.074  0.0000E+00  0.6000E+00
     11.209  0.0000E+00  0.6000E+00
     11.344  0.0000E+00  0.6000E+00
     11.479  0.0000E+00  0.6000E+00
     11.615  0.0000E+00  0.6000E+00
     11.750  0.0000E+00  0.6000E+00
     11.885  0.0000E+00  0.6000E+00
     11.88494168    -28.66757859  301      2.71216834      1.00000000
    -28.668  0.0000E+00  0.0000E+00  0.0000E+00  0.0000E+00  0.0000E+00  0.0000E+00  0.0000E+00  0.0000E+00  0.0000E+00
    -28.532  0.0000E+00  0.0000E+00  0.0000E+00  0.0000E+00  0.0000E+00  0.0000E+00  0.0000E+00  0.0000E+00  0.0000E+00
    -28.397  0.0000E+00  0.0000E+00  0.0000E+00  0.0000E+00  0.0000E+00  0.0000E+00  0.0000E+00  0.0000E+00  0.0000E+00
    -28.262  0.0000E+00  0.0000E+00  0.0000E+00  0.0000E+00  0.0000E+00  0.0000E+00  0.0000E+00  0.0000E+00  0.0000E+00
    -28.127  0.0000E+00  0.0000E+00  0.0000E+00  0.0000E+00  0.0000E+00  0.0000E+00  0.0000E+00  0.0000E+00  0.0000E+00
    -27.992  0.0000E+00  0.0000E+00  0.0000E+00  0.0000E+00  0.0000E+00  0.0000E+00  0.0000E+00  0.0000E+00  0.0000E+00
    -27.857  0.0000E+00  0.0000E+00  0.0000E+00  0.0000E+00  0.0000E+00  0.0000E+00  0.0000E+00  0.0000E+00  0.0000E+00
    -27.721  0.0000E+00  0.0000E+00  0.0000E+00  0.0000E+00  0.0000E+00  0.0000E+00  0.0000E+00  0.0000E+00  0.0000E+00
    -27.586  0.0000E+00  0.0000E+00  0.0000E+00  0.0000E+00  0.0000E+00  0.0000E+00  0.0000E+00  0.0000E+00  0.0000E+00
    -27.451  0.0000E+00  0.0000E+00  0.0000E+00  0.0000E+00  0.0000E+00  0.0000E+00  0.0000E+00  0.0000E+00  0.0000E+00
    -27.316  0.0000E+00  0.0000E+00  0.0000E+00  0.0000E+00  0.0000E+00  0.0000E+00  0.0000E+00  0.0000E+00  0.0000E+00
    -27.181  0.0000E+00  0.0000E+00  0.0000E+00  0.0000E+00  0.0000E+00  0.0000E+00  0.0000E+00  0.0000E+00  0.0000E+00
    -27.045  0.0000E+00  0.0000E+00  0.0000E+00  0.0000E+00  0.0000E+00  0.0000E+00  0.0000E+00  0.0000E+00  0.0000E+00
    -26.910  0.0000E+00  0.0000E+00  0.0000E+00  0.0000E+00  0.0000E+00  0.0000E+00  0.0000E+00  0.0000E+00  0.0000E+00
    -26.775  0.1445E+02  0.1632E-04  0.4276E-11  0.1632E-04  0.5181E-05  0.2231E-07  0.6849E-05  0.2231E-07  0.5179E-05
    -26.640  0.0000E+00  0.0000E+00  0.0000E+00  0.0000E+00  0.0000E+00  0.0000E+00  0.0000E+00  0.0000E+00  0.0000E+00
    -26.505  0.0000E+00  0.0000E+00  0.0000E+00  0.0000E+00  0.0000E+00  0.0000E+00  0.0000E+00  0.0000E+00  0.0000E+00
    -26.370  0.0000E+00  0.0000E+00  0.0000E+00  0.0000E+00  0.0000E+00  0.0000E+00  0.0000E+00  0.0000E+00  0.0000E+00
    -26.234  0.0000E+00  0.0000E+00  0.0000E+00  0.0000E+00  0.0000E+00  0.0000E+00  0.0000E+00  0.0000E+00  0.0000E+00
    -26.099  0.0000E+00  0.0000E+00  0.0000E+00  0.0000E+00  0.0000E+00  0.0000E+00  0.0000E+00  0.0000E+00  0.0000E+00
    -25.964  0.0000E+00  0.0000E+00  0.0000E+00  0.0000E+00  0.0000E+00  0.0000E+00  0.0000E+00  0.0000E+00  0.0000E+00
    -25.829  0.0000E+00  0.0000E+00  0.0000E+00  0.0000E+00  0.0000E+00  0.0000E+00  0.0000E+00  0.0000E+00  0.0000E+00
    -25.694  0.0000E+00  0.0000E+00  0.0000E+00  0.0000E+00  0.0000E+00  0.0000E+00  0.0000E+00  0.0000E+00  0.0000E+00
    -25.559  0.0000E+00  0.0000E+00  0.0000E+00  0.0000E+00  0.0000E+00  0.0000E+00  0.0000E+00  0.0000E+00  0.0000E+00
    -25.423  0.0000E+00  0.0000E+00  0.0000E+00  0.0000E+00  0.0000E+00  0.0000E+00  0.0000E+00  0.0000E+00  0.0000E+00
    -25.288  0.0000E+00  0.0000E+00  0.0000E+00  0.0000E+00  0.0000E+00  0.0000E+00  0.0000E+00  0.0000E+00  0.0000E+00
    -25.153  0.0000E+00  0.0000E+00  0.0000E+00  0.0000E+00  0.0000E+00  0.0000E+00  0.0000E+00  0.0000E+00  0.0000E+00
    -25.018  0.0000E+00  0.0000E+00  0.0000E+00  0.0000E+00  0.0000E+00  0.0000E+00  0.0000E+00  0.0000E+00  0.0000E+00
    -24.883  0.0000E+00  0.0000E+00  0.0000E+00  0.0000E+00  0.0000E+00  0.0000E+00  0.0000E+00  0.0000E+00  0.0000E+00
    -24.748  0.0000E+00  0.0000E+00  0.0000E+00  0.0000E+00  0.0000E+00  0.0000E+00  0.0000E+00  0.0000E+00  0.0000E+00
    -24.612  0.0000E+00  0.0000E+00  0.0000E+00  0.0000E+00  0.0000E+00  0.0000E+00  0.0000E+00  0.0000E+00  0.0000E+00
    -24.477  0.0000E+00  0.0000E+00  0.0000E+00  0.0000E+00  0.0000E+00  0.0000E+00  0.0000E+00  0.0000E+00  0.0000E+00
    -24.342  0.0000E+00  0.0000E+00  0.0000E+00  0.0000E+00  0.0000E+00  0.0000E+00  0.0000E+00  0.0000E+00  0.0000E+00
    -24.207  0.0000E+00  0.0000E+00  0.0000E+00  0.0000E+00  0.0000E+00  0.0000E+00  0.0000E+00  0.0000E+00  0.0000E+00
    -24.072  0.0000E+00  0.0000E+00  0.0000E+00  0.0000E+00  0.0000E+00  0.0000E+00  0.0000E+00  0.0000E+00  0.0000E+00
    -23.936  0.0000E+00  0.0000E+00  0.0000E+00  0.0000E+00  0.0000E+00  0.0000E+00  0.0000E+00  0.0000E+00  0.0000E+00
    -23.801  0.0000E+00  0.0000E+00  0.0000E+00  0.0000E+00  0.0000E+00  0.0000E+00  0.0000E+00  0.0000E+00  0.0000E+00
    -23.666  0.0000E+00  0.0000E+00  0.0000E+00  0.0000E+00  0.0000E+00  0.0000E+00  0.0000E+00  0.0000E+00  0.0000E+00
    -23.531  0.0000E+00  0.0000E+00  0.0000E+00  0.0000E+00  0.0000E+00  0.0000E+00  0.0000E+00  0.0000E+00  0.0000E+00
    -23.396  0.0000E+00  0.0000E+00  0.0000E+00  0.0000E+00  0.0000E+00  0.0000E+00  0.0000E+00  0.0000E+00  0.0000E+00
    -23.261  0.0000E+00  0.0000E+00  0.0000E+00  0.0000E+00  0.0000E+00  0.0000E+00  0.0000E+00  0.0000E+00  0.0000E+00
    -23.125  0.0000E+00  0.0000E+00  0.0000E+00  0.0000E+00  0.0000E+00  0.0000E+00  0.0000E+00  0.0000E+00  0.0000E+00
    -22.990  0.0000E+00  0.0000E+00  0.0000E+00  0.0000E+00  0.0000E+00  0.0000E+00  0.0000E+00  0.0000E+00  0.0000E+00
    -22.855  0.0000E+00  0.0000E+00  0.0000E+00  0.0000E+00  0.0000E+00  0.0000E+00  0.0000E+00  0.0000E+00  0.0000E+00
    -22.720  0.0000E+00  0.0000E+00  0.0000E+00  0.0000E+00  0.0000E+00  0.0000E+00  0.0000E+00  0.0000E+00  0.0000E+00
    -22.585  0.0000E+00  0.0000E+00  0.0000E+00  0.0000E+00  0.0000E+00  0.0000E+00  0.0000E+00  0.0000E+00  0.0000E+00
    -22.450  0.0000E+00  0.0000E+00  0.0000E+00  0.0000E+00  0.0000E+00  0.0000E+00  0.0000E+00  0.0000E+00  0.0000E+00
    -22.314  0.0000E+00  0.0000E+00  0.0000E+00  0.0000E+00  0.0000E+00  0.0000E+00  0.0000E+00  0.0000E+00  0.0000E+00
    -22.179  0.0000E+00  0.0000E+00  0.0000E+00  0.0000E+00  0.0000E+00  0.0000E+00  0.0000E+00  0.0000E+00  0.0000E+00
    -22.044  0.0000E+00  0.0000E+00  0.0000E+00  0.0000E+00  0.0000E+00  0.0000E+00  0.0000E+00  0.0000E+00  0.0000E+00
    -21.909  0.0000E+00  0.0000E+00  0.0000E+00  0.0000E+00  0.0000E+00  0.0000E+00  0.0000E+00  0.0000E+00  0.0000E+00
    -21.774  0.0000E+00  0.0000E+00  0.0000E+00  0.0000E+00  0.0000E+00  0.0000E+00  0.0000E+00  0.0000E+00  0.0000E+00
    -21.638  0.0000E+00  0.0000E+00  0.0000E+00  0.0000E+00  0.0000E+00  0.0000E+00  0.0000E+00  0.0000E+00  0.0000E+00
    -21.503  0.0000E+00  0.0000E+00  0.0000E+00  0.0000E+00  0.0000E+00  0.0000E+00  0.0000E+00  0.0000E+00  0.0000E+00
    -21.368  0.0000E+00  0.0000E+00  0.0000E+00  0.0000E+00  0.0000E+00  0.0000E+00  0.0000E+00  0.0000E+00  0.0000E+00
    -21.233  0.0000E+00  0.0000E+00  0.0000E+00  0.0000E+00  0.0000E+00  0.0000E+00  0.0000E+00  0.0000E+00  0.0000E+00
    -21.098  0.0000E+00  0.0000E+00  0.0000E+00  0.0000E+00  0.0000E+00  0.0000E+00  0.0000E+00  0.0000E+00  0.0000E+00
    -20.963  0.0000E+00  0.0000E+00  0.0000E+00  0.0000E+00  0.0000E+00  0.0000E+00  0.0000E+00  0.0000E+00  0.0000E+00
    -20.827  0.0000E+00  0.0000E+00  0.0000E+00  0.0000E+00  0.0000E+00  0.0000E+00  0.0000E+00  0.0000E+00  0.0000E+00
    -20.692  0.0000E+00  0.0000E+00  0.0000E+00  0.0000E+00  0.0000E+00  0.0000E+00  0.0000E+00  0.0000E+00  0.0000E+00
    -20.557  0.0000E+00  0.0000E+00  0.0000E+00  0.0000E+00  0.0000E+00  0.0000E+00  0.0000E+00  0.0000E+00  0.0000E+00
    -20.422  0.0000E+00  0.0000E+00  0.0000E+00  0.0000E+00  0.0000E+00  0.0000E+00  0.0000E+00  0.0000E+00  0.0000E+00
    -20.287  0.0000E+00  0.0000E+00  0.0000E+00  0.0000E+00  0.0000E+00  0.0000E+00  0.0000E+00  0.0000E+00  0.0000E+00
    -20.152  0.0000E+00  0.0000E+00  0.0000E+00  0.0000E+00  0.0000E+00  0.0000E+00  0.0000E+00  0.0000E+00  0.0000E+00
    -20.016  0.0000E+00  0.0000E+00  0.0000E+00  0.0000E+00  0.0000E+00  0.0000E+00  0.0000E+00  0.0000E+00  0.0000E+00
    -19.881  0.0000E+00  0.0000E+00  0.0000E+00  0.0000E+00  0.0000E+00  0.0000E+00  0.0000E+00  0.0000E+00  0.0000E+00
    -19.746  0.0000E+00  0.0000E+00  0.0000E+00  0.0000E+00  0.0000E+00  0.0000E+00  0.0000E+00  0.0000E+00  0.0000E+00
    -19.611  0.0000E+00  0.0000E+00  0.0000E+00  0.0000E+00  0.0000E+00  0.0000E+00  0.0000E+00  0.0000E+00  0.0000E+00
    -19.476  0.0000E+00  0.0000E+00  0.0000E+00  0.0000E+00  0.0000E+00  0.0000E+00  0.0000E+00  0.0000E+00  0.0000E+00
    -19.340  0.0000E+00  0.0000E+00  0.0000E+00  0.0000E+00  0.0000E+00  0.0000E+00  0.0000E+00  0.0000E+00  0.0000E+00
    -19.205  0.0000E+00  0.0000E+00  0.0000E+00  0.0000E+00  0.0000E+00  0.0000E+00  0.0000E+00  0.0000E+00  0.0000E+00
    -19.070  0.0000E+00  0.0000E+00  0.0000E+00  0.0000E+00  0.0000E+00  0.0000E+00  0.0000E+00  0.0000E+00  0.0000E+00
    -18.935  0.0000E+00  0.0000E+00  0.0000E+00  0.0000E+00  0.0000E+00  0.0000E+00  0.0000E+00  0.0000E+00  0.0000E+00
    -18.800  0.0000E+00  0.0000E+00  0.0000E+00  0.0000E+00  0.0000E+00  0.0000E+00  0.0000E+00  0.0000E+00  0.0000E+00
    -18.665  0.0000E+00  0.0000E+00  0.0000E+00  0.0000E+00  0.0000E+00  0.0000E+00  0.0000E+00  0.0000E+00  0.0000E+00
    -18.529  0.0000E+00  0.0000E+00  0.0000E+00  0.0000E+00  0.0000E+00  0.0000E+00  0.0000E+00  0.0000E+00  0.0000E+00
    -18.394  0.0000E+00  0.0000E+00  0.0000E+00  0.0000E+00  0.0000E+00  0.0000E+00  0.0000E+00  0.0000E+00  0.0000E+00
    -18.259  0.0000E+00  0.0000E+00  0.0000E+00  0.0000E+00  0.0000E+00  0.0000E+00  0.0000E+00  0.0000E+00  0.0000E+00
    -18.124  0.0000E+00  0.0000E+00  0.0000E+00  0.0000E+00  0.0000E+00  0.0000E+00  0.0000E+00  0.0000E+00  0.0000E+00
    -17.989  0.0000E+00  0.0000E+00  0.0000E+00  0.0000E+00  0.0000E+00  0.0000E+00  0.0000E+00  0.0000E+00  0.0000E+00
    -17.854  0.0000E+00  0.0000E+00  0.0000E+00  0.0000E+00  0.0000E+00  0.0000E+00  0.0000E+00  0.0000E+00  0.0000E+00
    -17.718  0.0000E+00  0.0000E+00  0.0000E+00  0.0000E+00  0.0000E+00  0.0000E+00  0.0000E+00  0.0000E+00  0.0000E+00
    -17.583  0.0000E+00  0.0000E+00  0.0000E+00  0.0000E+00  0.0000E+00  0.0000E+00  0.0000E+00  0.0000E+00  0.0000E+00
    -17.448  0.0000E+00  0.0000E+00  0.0000E+00  0.0000E+00  0.0000E+00  0.0000E+00  0.0000E+00  0.0000E+00  0.0000E+00
    -17.313  0.0000E+00  0.0000E+00  0.0000E+00  0.0000E+00  0.0000E+00  0.0000E+00  0.0000E+00  0.0000E+00  0.0000E+00
    -17.178  0.0000E+00  0.0000E+00  0.0000E+00  0.0000E+00  0.0000E+00  0.0000E+00  0.0000E+00  0.0000E+00  0.0000E+00
    -17.043  0.0000E+00  0.0000E+00  0.0000E+00  0.0000E+00  0.0000E+00  0.0000E+00  0.0000E+00  0.0000E+00  0.0000E+00
    -16.907  0.0000E+00  0.0000E+00  0.0000E+00  0.0000E+00  0.0000E+00  0.0000E+00  0.0000E+00  0.0000E+00  0.0000E+00
    -16.772  0.0000E+00  0.0000E+00  0.0000E+00  0.0000E+00  0.0000E+00  0.0000E+00  0.0000E+00  0.0000E+00  0.0000E+00
    -16.637  0.0000E+00  0.0000E+00  0.0000E+00  0.0000E+00  0.0000E+00  0.0000E+00  0.0000E+00  0.0000E+00  0.0000E+00
    -16.502  0.0000E+00  0.0000E+00  0.0000E+00  0.0000E+00  0.0000E+00  0.0000E+00  0.0000E+00  0.0000E+00  0.0000E+00
    -16.367  0.0000E+00  0.0000E+00  0.0000E+00  0.0000E+00  0.0000E+00  0.0000E+00  0.0000E+00  0.0000E+00  0.0000E+00
    -16.231  0.0000E+00  0.0000E+00  0.0000E+00  0.0000E+00  0.0000E+00  0.0000E+00  0.0000E+00  0.0000E+00  0.0000E+00
    -16.096  0.0000E+00  0.0000E+00  0.0000E+00  0.0000E+00  0.0000E+00  0.0000E+00  0.0000E+00  0.0000E+00  0.0000E+00
    -15.961  0.0000E+00  0.0000E+00  0.0000E+00  0.0000E+00  0.0000E+00  0.0000E+00  0.0000E+00  0.0000E+00  0.0000E+00
    -15.826  0.0000E+00  0.0000E+00  0.0000E+00  0.0000E+00  0.0000E+00  0.0000E+00  0.0000E+00  0.0000E+00  0.0000E+00
    -15.691  0.0000E+00  0.0000E+00  0.0000E+00  0.0000E+00  0.0000E+00  0.0000E+00  0.0000E+00  0.0000E+00  0.0000E+00
    -15.556  0.0000E+00  0.0000E+00  0.0000E+00  0.0000E+00  0.0000E+00  0.0000E+00  0.0000E+00  0.0000E+00  0.0000E+00
    -15.420  0.0000E+00  0.0000E+00  0.0000E+00  0.0000E+00  0.0000E+00  0.0000E+00  0.0000E+00  0.0000E+00  0.0000E+00
    -15.285  0.0000E+00  0.0000E+00  0.0000E+00  0.0000E+00  0.0000E+00  0.0000E+00  0.0000E+00  0.0000E+00  0.0000E+00
    -15.150  0.0000E+00  0.0000E+00  0.0000E+00  0.0000E+00  0.0000E+00  0.0000E+00  0.0000E+00  0.0000E+00  0.0000E+00
    -15.015  0.0000E+00  0.0000E+00  0.0000E+00  0.0000E+00  0.0000E+00  0.0000E+00  0.0000E+00  0.0000E+00  0.0000E+00
    -14.880  0.0000E+00  0.0000E+00  0.0000E+00  0.0000E+00  0.0000E+00  0.0000E+00  0.0000E+00  0.0000E+00  0.0000E+00
    -14.745  0.0000E+00  0.0000E+00  0.0000E+00  0.0000E+00  0.0000E+00  0.0000E+00  0.0000E+00  0.0000E+00  0.0000E+00
    -14.609  0.0000E+00  0.0000E+00  0.0000E+00  0.0000E+00  0.0000E+00  0.0000E+00  0.0000E+00  0.0000E+00  0.0000E+00
    -14.474  0.0000E+00  0.0000E+00  0.0000E+00  0.0000E+00  0.0000E+00  0.0000E+00  0.0000E+00  0.0000E+00  0.0000E+00
    -14.339  0.0000E+00  0.0000E+00  0.0000E+00  0.0000E+00  0.0000E+00  0.0000E+00  0.0000E+00  0.0000E+00  0.0000E+00
    -14.204  0.0000E+00  0.0000E+00  0.0000E+00  0.0000E+00  0.0000E+00  0.0000E+00  0.0000E+00  0.0000E+00  0.0000E+00
    -14.069  0.0000E+00  0.0000E+00  0.0000E+00  0.0000E+00  0.0000E+00  0.0000E+00  0.0000E+00  0.0000E+00  0.0000E+00
    -13.933  0.0000E+00  0.0000E+00  0.0000E+00  0.0000E+00  0.0000E+00  0.0000E+00  0.0000E+00  0.0000E+00  0.0000E+00
    -13.798  0.0000E+00  0.0000E+00  0.0000E+00  0.0000E+00  0.0000E+00  0.0000E+00  0.0000E+00  0.0000E+00  0.0000E+00
    -13.663  0.0000E+00  0.0000E+00  0.0000E+00  0.0000E+00  0.0000E+00  0.0000E+00  0.0000E+00  0.0000E+00  0.0000E+00
    -13.528  0.0000E+00  0.0000E+00  0.0000E+00  0.0000E+00  0.0000E+00  0.0000E+00  0.0000E+00  0.0000E+00  0.0000E+00
    -13.393  0.0000E+00  0.0000E+00  0.0000E+00  0.0000E+00  0.0000E+00  0.0000E+00  0.0000E+00  0.0000E+00  0.0000E+00
    -13.258  0.0000E+00  0.0000E+00  0.0000E+00  0.0000E+00  0.0000E+00  0.0000E+00  0.0000E+00  0.0000E+00  0.0000E+00
    -13.122  0.0000E+00  0.0000E+00  0.0000E+00  0.0000E+00  0.0000E+00  0.0000E+00  0.0000E+00  0.0000E+00  0.0000E+00
    -12.987  0.0000E+00  0.0000E+00  0.0000E+00  0.0000E+00  0.0000E+00  0.0000E+00  0.0000E+00  0.0000E+00  0.0000E+00
    -12.852  0.0000E+00  0.0000E+00  0.0000E+00  0.0000E+00  0.0000E+00  0.0000E+00  0.0000E+00  0.0000E+00  0.0000E+00
    -12.717  0.0000E+00  0.0000E+00  0.0000E+00  0.0000E+00  0.0000E+00  0.0000E+00  0.0000E+00  0.0000E+00  0.0000E+00
    -12.582  0.0000E+00  0.0000E+00  0.0000E+00  0.0000E+00  0.0000E+00  0.0000E+00  0.0000E+00  0.0000E+00  0.0000E+00
    -12.447  0.0000E+00  0.0000E+00  0.0000E+00  0.0000E+00  0.0000E+00  0.0000E+00  0.0000E+00  0.0000E+00  0.0000E+00
    -12.311  0.0000E+00  0.0000E+00  0.0000E+00  0.0000E+00  0.0000E+00  0.0000E+00  0.0000E+00  0.0000E+00  0.0000E+00
    -12.176  0.0000E+00  0.0000E+00  0.0000E+00  0.0000E+00  0.0000E+00  0.0000E+00  0.0000E+00  0.0000E+00  0.0000E+00
    -12.041  0.0000E+00  0.0000E+00  0.0000E+00  0.0000E+00  0.0000E+00  0.0000E+00  0.0000E+00  0.0000E+00  0.0000E+00
    -11.906  0.0000E+00  0.0000E+00  0.0000E+00  0.0000E+00  0.0000E+00  0.0000E+00  0.0000E+00  0.0000E+00  0.0000E+00
    -11.771  0.0000E+00  0.0000E+00  0.0000E+00  0.0000E+00  0.0000E+00  0.0000E+00  0.0000E+00  0.0000E+00  0.0000E+00
    -11.636  0.0000E+00  0.0000E+00  0.0000E+00  0.0000E+00  0.0000E+00  0.0000E+00  0.0000E+00  0.0000E+00  0.0000E+00
    -11.500  0.6775E-03  0.2606E+01  0.1102E+00  0.2604E+01  0.1704E-03  0.4206E-04  0.4677E-04  0.4203E-04  0.1703E-03
    -11.365  0.1770E-02  0.2408E+01  0.4418E+01  0.2399E+01  0.3210E-03  0.4140E-03  0.1157E-03  0.4105E-03  0.3221E-03
    -11.230  0.3186E-02  0.2771E+01  0.3754E+01  0.2784E+01  0.3396E-03  0.4012E-03  0.1933E-03  0.4040E-03  0.3394E-03
    -11.095  0.9156E-03  0.1140E+01  0.4374E+01  0.1140E+01  0.2161E-03  0.2229E-03  0.5120E-04  0.2230E-03  0.2160E-03
    -10.960  0.4876E-03  0.6790E+01  0.2523E+01  0.6791E+01  0.6045E-03  0.2496E-04  0.2547E-04  0.2497E-04  0.6043E-03
    -10.824  0.9502E-04  0.2038E+01  0.8534E-02  0.2038E+01  0.8688E-04  0.4647E-06  0.4451E-05  0.4652E-06  0.8683E-04
    -10.689  0.0000E+00  0.0000E+00  0.0000E+00  0.0000E+00  0.0000E+00  0.0000E+00  0.0000E+00  0.0000E+00  0.0000E+00
    -10.554  0.0000E+00  0.0000E+00  0.0000E+00  0.0000E+00  0.0000E+00  0.0000E+00  0.0000E+00  0.0000E+00  0.0000E+00
    -10.419  0.0000E+00  0.0000E+00  0.0000E+00  0.0000E+00  0.0000E+00  0.0000E+00  0.0000E+00  0.0000E+00  0.0000E+00
    -10.284  0.0000E+00  0.0000E+00  0.0000E+00  0.0000E+00  0.0000E+00  0.0000E+00  0.0000E+00  0.0000E+00  0.0000E+00
    -10.149  0.0000E+00  0.0000E+00  0.0000E+00  0.0000E+00  0.0000E+00  0.0000E+00  0.0000E+00  0.0000E+00  0.0000E+00
    -10.013  0.0000E+00  0.0000E+00  0.0000E+00  0.0000E+00  0.0000E+00  0.0000E+00  0.0000E+00  0.0000E+00  0.0000E+00
     -9.878  0.0000E+00  0.0000E+00  0.0000E+00  0.0000E+00  0.0000E+00  0.0000E+00  0.0000E+00  0.0000E+00  0.0000E+00
     -9.743  0.0000E+00  0.0000E+00  0.0000E+00  0.0000E+00  0.0000E+00  0.0000E+00  0.0000E+00  0.0000E+00  0.0000E+00
     -9.608  0.0000E+00  0.0000E+00  0.0000E+00  0.0000E+00  0.0000E+00  0.0000E+00  0.0000E+00  0.0000E+00  0.0000E+00
     -9.473  0.0000E+00  0.0000E+00  0.0000E+00  0.0000E+00  0.0000E+00  0.0000E+00  0.0000E+00  0.0000E+00  0.0000E+00
     -9.338  0.0000E+00  0.0000E+00  0.0000E+00  0.0000E+00  0.0000E+00  0.0000E+00  0.0000E+00  0.0000E+00  0.0000E+00
     -9.202  0.0000E+00  0.0000E+00  0.0000E+00  0.0000E+00  0.0000E+00  0.0000E+00  0.0000E+00  0.0000E+00  0.0000E+00
     -9.067  0.0000E+00  0.0000E+00  0.0000E+00  0.0000E+00  0.0000E+00  0.0000E+00  0.0000E+00  0.0000E+00  0.0000E+00
     -8.932  0.9579E-03  0.7799E-03  0.2069E-03  0.7836E-03  0.1891E-06  0.3268E-06  0.2830E-04  0.2308E-06  0.2032E-06
     -8.797  0.6601E-02  0.1275E-01  0.2501E-02  0.1278E-01  0.9209E-05  0.1491E-04  0.2344E-03  0.1364E-04  0.9300E-05
     -8.662  0.9265E-02  0.4444E-01  0.7775E-02  0.4470E-01  0.1349E-03  0.2711E-03  0.4254E-03  0.2675E-03  0.1351E-03
     -8.526  0.7110E-02  0.1476E+00  0.1706E+00  0.1477E+00  0.6302E-02  0.2002E-01  0.2452E-03  0.2002E-01  0.6301E-02
     -8.391  0.5078E-02  0.3925E+00  0.7625E+00  0.3922E+00  0.2016E-02  0.7258E-02  0.4018E-03  0.7272E-02  0.2017E-02
     -8.256  0.6695E-04  0.1908E-01  0.2099E-01  0.1908E-01  0.1608E-04  0.7270E-04  0.5688E-05  0.6933E-04  0.1621E-04
     -8.121  0.0000E+00  0.0000E+00  0.0000E+00  0.0000E+00  0.0000E+00  0.0000E+00  0.0000E+00  0.0000E+00  0.0000E+00
     -7.986  0.0000E+00  0.0000E+00  0.0000E+00  0.0000E+00  0.0000E+00  0.0000E+00  0.0000E+00  0.0000E+00  0.0000E+00
     -7.851  0.0000E+00  0.0000E+00  0.0000E+00  0.0000E+00  0.0000E+00  0.0000E+00  0.0000E+00  0.0000E+00  0.0000E+00
     -7.715  0.0000E+00  0.0000E+00  0.0000E+00  0.0000E+00  0.0000E+00  0.0000E+00  0.0000E+00  0.0000E+00  0.0000E+00
     -7.580  0.0000E+00  0.0000E+00  0.0000E+00  0.0000E+00  0.0000E+00  0.0000E+00  0.0000E+00  0.0000E+00  0.0000E+00