Automatically generated mesh
     252
Reciprocal lattice
    0.00000000000000    0.00000000000000    0.00000000000000             1
    0.10000000000000    0.00000000000000    0.00000000000000             2
    0.10000000000000   -0.10000000000000    0.00000000000000             2
    0.00000000000000   -0.10000000000000    0.00000000000000             2
    0.20000000000000    0.00000000000000    0.00000000000000             2
    0.20000000000000   -0.20000000000000    0.00000000000000             2
    0.00000000000000   -0.20000000000000    0.00000000000000             2
    0.30000000000000    0.00000000000000    0.00000000000000             2
    0.30000000000000   -0.30000000000000    0.00000000000000             2
    0.00000000000000   -0.30000000000000    0.00000000000000             2
    0.40000000000000    0.00000000000000    0.00000000000000             2
    0.40000000000000   -0.40000000000000    0.00000000000000             2
    0.00000000000000   -0.40000000000000    0.00000000000000             2
    0.50000000000000    0.00000000000000    0.00000000000000             1
    0.50000000000000    0.50000000000000    0.00000000000000             1
    0.00000000000000    0.50000000000000    0.00000000000000             1
    0.10000000000000    0.10000000000000    0.00000000000000             2
    0.20000000000000   -0.10000000000000    0.00000000000000             2
    0.10000000000000   -0.20000000000000    0.00000000000000             2
    0.20000000000000    0.10000000000000    0.00000000000000             2
    0.30000000000001   -0.20000000000000    0.00000000000000             2
    0.10000000000000   -0.30000000000000    0.00000000000000             2
   -0.10000000000000   -0.20000000000000    0.00000000000000             2
    0.20000000000000   -0.30000000000000    0.00000000000000             2
    0.30000000000001   -0.10000000000000    0.00000000000000             2
    0.30000000000000    0.10000000000000    0.00000000000000             2
    0.40000000000000   -0.30000000000000    0.00000000000000             2
    0.10000000000000   -0.40000000000000    0.00000000000000             2
   -0.10000000000000   -0.30000000000000    0.00000000000000             2
    0.30000000000000   -0.40000000000000    0.00000000000000             2
    0.40000000000000   -0.10000000000000    0.00000000000000             2
    0.40000000000000    0.10000000000000    0.00000000000000             2
    0.50000000000000   -0.40000000000000    0.00000000000000             2
    0.10000000000000    0.50000000000000    0.00000000000000             2
   -0.10000000000000   -0.40000000000000    0.00000000000000             2
    0.40000000000000    0.50000000000000    0.00000000000000             2
    0.50000000000000   -0.10000000000000    0.00000000000000             2
    0.20000000000000    0.20000000000000    0.00000000000000             2
    0.40000000000001   -0.20000000000000    0.00000000000000             2
    0.20000000000000   -0.40000000000000    0.00000000000000             2
    0.30000000000000    0.20000000000000    0.00000000000000             2
    0.50000000000000   -0.30000000000000    0.00000000000000             2
    0.20000000000000    0.50000000000000    0.00000000000000             2
   -0.20000000000000   -0.30000000000000    0.00000000000000             2
    0.30000000000000    0.50000000000000    0.00000000000000             2
    0.50000000000000   -0.20000000000000    0.00000000000000             2
    0.40000000000000    0.20000000000000    0.00000000000000             2
   -0.40000000000000   -0.40000000000000    0.00000000000000             2
    0.20000000000000    0.40000000000000    0.00000000000000             2
    0.30000000000000    0.30000000000000    0.00000000000000             2
   -0.40000000000000   -0.30000000000000    0.00000000000000             2
    0.30000000000000    0.40000000000001    0.00000000000000             2
    0.00000000000000    0.00000000000000    0.20000000000000             2
    0.10000000000000    0.00000000000000    0.20000000000000             2
    0.10000000000000   -0.10000000000000    0.20000000000000             2
    0.00000000000000   -0.10000000000000    0.20000000000000             2
   -0.10000000000000    0.00000000000000    0.20000000000000             2
   -0.10000000000000    0.10000000000000    0.20000000000000             2
    0.00000000000000    0.10000000000000    0.20000000000000             2
    0.20000000000000    0.00000000000000    0.20000000000000             2
    0.20000000000000   -0.20000000000000    0.20000000000000             2
    0.00000000000000   -0.20000000000000    0.20000000000000             2
   -0.20000000000000    0.00000000000000    0.20000000000000             2
   -0.20000000000000    0.20000000000000    0.20000000000000             2
    0.00000000000000    0.20000000000000    0.20000000000000             2
    0.30000000000000    0.00000000000000    0.20000000000000             2
    0.30000000000000   -0.30000000000000    0.20000000000000             2
    0.00000000000000   -0.30000000000000    0.20000000000000             2
   -0.30000000000000    0.00000000000000    0.20000000000000             2
   -0.30000000000000    0.30000000000000    0.20000000000000             2
    0.00000000000000    0.30000000000000    0.20000000000000             2
    0.40000000000000    0.00000000000000    0.20000000000000             2
    0.40000000000000   -0.40000000000000    0.20000000000000             2
    0.00000000000000   -0.40000000000000    0.20000000000000             2
   -0.40000000000000    0.00000000000000    0.20000000000000             2
   -0.40000000000000    0.40000000000000    0.20000000000000             2
    0.00000000000000    0.40000000000000    0.20000000000000             2
    0.50000000000000    0.00000000000000    0.20000000000000             2
    0.50000000000000    0.50000000000000    0.20000000000000             2
    0.00000000000000    0.50000000000000    0.20000000000000             2
    0.10000000000000    0.10000000000000    0.20000000000000             2
    0.20000000000000   -0.10000000000000    0.20000000000000             2
    0.10000000000000   -0.20000000000000    0.20000000000000             2
   -0.10000000000000   -0.10000000000000    0.20000000000000             2
   -0.20000000000000    0.10000000000000    0.20000000000000             2
   -0.10000000000000    0.20000000000000    0.20000000000000             2
    0.20000000000000    0.10000000000000    0.20000000000000             2
    0.30000000000001   -0.20000000000000    0.20000000000000             2
    0.10000000000000   -0.30000000000000    0.20000000000000             2
   -0.20000000000000   -0.10000000000000    0.20000000000000             2
   -0.30000000000000    0.20000000000000    0.20000000000000             2
   -0.10000000000000    0.30000000000001    0.20000000000000             2
   -0.10000000000000   -0.20000000000000   -0.20000000000000             2
    0.20000000000000   -0.30000000000000   -0.20000000000000             2
    0.30000000000001   -0.10000000000000   -0.20000000000000             2
    0.10000000000000    0.20000000000000   -0.20000000000000             2
   -0.20000000000000    0.30000000000001   -0.20000000000000             2
   -0.30000000000000    0.10000000000000   -0.20000000000000             2
    0.30000000000000    0.10000000000000    0.20000000000000             2
    0.40000000000000   -0.30000000000000    0.20000000000000             2
    0.10000000000000   -0.40000000000000    0.20000000000000             2
   -0.30000000000000   -0.10000000000000    0.20000000000000             2
   -0.40000000000000    0.30000000000000    0.20000000000000             2
   -0.10000000000000    0.40000000000000    0.20000000000000             2
   -0.10000000000000   -0.30000000000000   -0.20000000000000             2
    0.30000000000000   -0.40000000000000   -0.20000000000000             2
    0.40000000000000   -0.10000000000000   -0.20000000000000             2
    0.10000000000000    0.30000000000000   -0.20000000000000             2
   -0.30000000000000    0.40000000000000   -0.20000000000000             2
   -0.40000000000000    0.10000000000000   -0.20000000000000             2
    0.40000000000000    0.10000000000000    0.20000000000000             2
    0.50000000000000   -0.40000000000000    0.20000000000000             2
    0.10000000000000    0.50000000000000    0.20000000000000             2
   -0.40000000000000   -0.10000000000000    0.20000000000000             2
    0.50000000000000    0.40000000000000    0.20000000000000             2
   -0.10000000000000    0.50000000000000    0.20000000000000             2
   -0.10000000000000   -0.40000000000000   -0.20000000000000             2
    0.40000000000000    0.50000000000000   -0.20000000000000             2
    0.50000000000000   -0.10000000000000   -0.20000000000000             2
    0.10000000000000    0.40000000000000   -0.20000000000000             2
   -0.40000000000000    0.50000000000000   -0.20000000000000             2
    0.50000000000000    0.10000000000000   -0.20000000000000             2
    0.20000000000000    0.20000000000000    0.20000000000000             2
    0.40000000000001   -0.20000000000000    0.20000000000000             2
    0.20000000000000   -0.40000000000000    0.20000000000000             2
   -0.20000000000000   -0.20000000000000    0.20000000000000             2
   -0.40000000000000    0.20000000000000    0.20000000000000             2
   -0.20000000000000    0.40000000000001    0.20000000000000             2
    0.30000000000000    0.20000000000000    0.20000000000000             2
    0.50000000000000   -0.30000000000000    0.20000000000000             2
    0.20000000000000    0.50000000000000    0.20000000000000             2
   -0.30000000000000   -0.20000000000000    0.20000000000000             2
    0.50000000000000    0.30000000000000    0.20000000000000             2
   -0.20000000000000    0.50000000000000    0.20000000000000             2
   -0.20000000000000   -0.30000000000000   -0.20000000000000             2
    0.30000000000000    0.50000000000000   -0.20000000000000             2
    0.50000000000000   -0.20000000000000   -0.20000000000000             2
    0.20000000000000    0.30000000000000   -0.20000000000000             2
   -0.30000000000000    0.50000000000000   -0.20000000000000             2
    0.50000000000000    0.20000000000000   -0.20000000000000             2
    0.40000000000000    0.20000000000000    0.20000000000000             2
   -0.40000000000000   -0.40000000000000    0.20000000000000             2
    0.20000000000000    0.40000000000000    0.20000000000000             2
   -0.40000000000000   -0.20000000000000    0.20000000000000             2
    0.40000000000000    0.40000000000000    0.20000000000000             2
   -0.20000000000000   -0.40000000000000    0.20000000000000             2
    0.30000000000000    0.30000000000000    0.20000000000000             2
   -0.40000000000000   -0.30000000000000    0.20000000000000             2
    0.30000000000000    0.40000000000001    0.20000000000000             2
   -0.30000000000000   -0.30000000000000    0.20000000000000             2
    0.40000000000001    0.30000000000000    0.20000000000000             2
   -0.30000000000000   -0.40000000000000    0.20000000000000             2
    0.00000000000000    0.00000000000000    0.40000000000000             2
    0.10000000000000    0.00000000000000    0.40000000000000             2
    0.10000000000000   -0.10000000000000    0.40000000000000             2
    0.00000000000000   -0.10000000000000    0.40000000000000             2
   -0.10000000000000    0.00000000000000    0.40000000000000             2
   -0.10000000000000    0.10000000000000    0.40000000000000             2
    0.00000000000000    0.10000000000000    0.40000000000000             2
    0.20000000000000    0.00000000000000    0.40000000000000             2
    0.20000000000000   -0.20000000000000    0.40000000000000             2
    0.00000000000000   -0.20000000000000    0.40000000000000             2
   -0.20000000000000    0.00000000000000    0.40000000000000             2
   -0.20000000000000    0.20000000000000    0.40000000000000             2
    0.00000000000000    0.20000000000000    0.40000000000000             2
    0.30000000000000    0.00000000000000    0.40000000000000             2
    0.30000000000000   -0.30000000000000    0.40000000000000             2
    0.00000000000000   -0.30000000000000    0.40000000000000             2
   -0.30000000000000    0.00000000000000    0.40000000000000             2
   -0.30000000000000    0.30000000000000    0.40000000000000             2
    0.00000000000000    0.30000000000000    0.40000000000000             2
    0.40000000000000    0.00000000000000    0.40000000000000             2
    0.40000000000000   -0.40000000000000    0.40000000000000             2
    0.00000000000000   -0.40000000000000    0.40000000000000             2
   -0.40000000000000    0.00000000000000    0.40000000000000             2
   -0.40000000000000    0.40000000000000    0.40000000000000             2
    0.00000000000000    0.40000000000000    0.40000000000000             2
    0.50000000000000    0.00000000000000    0.40000000000000             2
    0.50000000000000    0.50000000000000    0.40000000000000             2
    0.00000000000000    0.50000000000000    0.40000000000000             2
    0.10000000000000    0.10000000000000    0.40000000000000             2
    0.20000000000000   -0.10000000000000    0.40000000000000             2
    0.10000000000000   -0.20000000000000    0.40000000000000             2
   -0.10000000000000   -0.10000000000000    0.40000000000000             2
   -0.20000000000000    0.10000000000000    0.40000000000000             2
   -0.10000000000000    0.20000000000000    0.40000000000000             2
    0.20000000000000    0.10000000000000    0.40000000000000             2
    0.30000000000001   -0.20000000000000    0.40000000000000             2
    0.10000000000000   -0.30000000000000    0.40000000000000             2
   -0.20000000000000   -0.10000000000000    0.40000000000000             2
   -0.30000000000000    0.20000000000000    0.40000000000000             2
   -0.10000000000000    0.30000000000001    0.40000000000000             2
   -0.10000000000000   -0.20000000000000   -0.40000000000000             2
    0.20000000000000   -0.30000000000000   -0.40000000000000             2
    0.30000000000001   -0.10000000000000   -0.40000000000000             2
    0.10000000000000    0.20000000000000   -0.40000000000000             2
   -0.20000000000000    0.30000000000001   -0.40000000000000             2
   -0.30000000000000    0.10000000000000   -0.40000000000000             2
    0.30000000000000    0.10000000000000    0.40000000000000             2
    0.40000000000000   -0.30000000000000    0.40000000000000             2
    0.10000000000000   -0.40000000000000    0.40000000000000             2
   -0.30000000000000   -0.10000000000000    0.40000000000000             2
   -0.40000000000000    0.30000000000000    0.40000000000000             2
   -0.10000000000000    0.40000000000000    0.40000000000000             2
   -0.10000000000000   -0.30000000000000   -0.40000000000000             2
    0.30000000000000   -0.40000000000000   -0.40000000000000             2
    0.40000000000000   -0.10000000000000   -0.40000000000000             2
    0.10000000000000    0.30000000000000   -0.40000000000000             2
   -0.30000000000000    0.40000000000000   -0.40000000000000             2
   -0.40000000000000    0.10000000000000   -0.40000000000000             2
    0.40000000000000    0.10000000000000    0.40000000000000             2
    0.50000000000000   -0.40000000000000    0.40000000000000             2
    0.10000000000000    0.50000000000000    0.40000000000000             2
   -0.40000000000000   -0.10000000000000    0.40000000000000             2
    0.50000000000000    0.40000000000000    0.40000000000000             2
   -0.10000000000000    0.50000000000000    0.40000000000000             2
   -0.10000000000000   -0.40000000000000   -0.40000000000000             2
    0.40000000000000    0.50000000000000   -0.40000000000000             2
    0.50000000000000   -0.10000000000000   -0.40000000000000             2
    0.10000000000000    0.40000000000000   -0.40000000000000             2
   -0.40000000000000    0.50000000000000   -0.40000000000000             2
    0.50000000000000    0.10000000000000   -0.40000000000000             2
    0.20000000000000    0.20000000000000    0.40000000000000             2
    0.40000000000001   -0.20000000000000    0.40000000000000             2
    0.20000000000000   -0.40000000000000    0.40000000000000             2
   -0.20000000000000   -0.20000000000000    0.40000000000000             2
   -0.40000000000000    0.20000000000000    0.40000000000000             2
   -0.20000000000000    0.40000000000001    0.40000000000000             2
    0.30000000000000    0.20000000000000    0.40000000000000             2
    0.50000000000000   -0.30000000000000    0.40000000000000             2
    0.20000000000000    0.50000000000000    0.40000000000000             2
   -0.30000000000000   -0.20000000000000    0.40000000000000             2
    0.50000000000000    0.30000000000000    0.40000000000000             2
   -0.20000000000000    0.50000000000000    0.40000000000000             2
   -0.20000000000000   -0.30000000000000   -0.40000000000000             2
    0.30000000000000    0.50000000000000   -0.40000000000000             2
    0.50000000000000   -0.20000000000000   -0.40000000000000             2
    0.20000000000000    0.30000000000000   -0.40000000000000             2
   -0.30000000000000    0.50000000000000   -0.40000000000000             2
    0.50000000000000    0.20000000000000   -0.40000000000000             2
    0.40000000000000    0.20000000000000    0.40000000000000             2
   -0.40000000000000   -0.40000000000000    0.40000000000000             2
    0.20000000000000    0.40000000000000    0.40000000000000             2
   -0.40000000000000   -0.20000000000000    0.40000000000000             2
    0.40000000000000    0.40000000000000    0.40000000000000             2
   -0.20000000000000   -0.40000000000000    0.40000000000000             2
    0.30000000000000    0.30000000000000    0.40000000000000             2
   -0.40000000000000   -0.30000000000000    0.40000000000000             2
    0.30000000000000    0.40000000000001    0.40000000000000             2
   -0.30000000000000   -0.30000000000000    0.40000000000000             2
    0.40000000000001    0.30000000000000    0.40000000000000             2
   -0.30000000000000   -0.40000000000000    0.40000000000000             2
Tetrahedra
      1500    0.00033333333333
         2         2         4        17        59
         2         1         2         4        59
         2         1         2        53        59
         2         2        17        59        81
         2         2        54        59        81
         2         2        53        54        59
         2         5        17        20        81
         2         2         5        17        81
         2         2         5        54        81
         2         5        20        81        87
         2         5        60        81        87
         2         5        54        60        81
         2         8        20        26        87
         2         5         8        20        87
         2         5         8        60        87
         2         8        26        87        99
         2         8        66        87        99
         2         8        60        66        87
         2        11        26        32        99
         2         8        11        26        99
         2         8        11        66        99
         2        11        32        99       111
         2        11        72        99       111
         2        11        66        72        99
         2        14        32        37       111
         2        11        14        32       111
         2        11        14        72       111
         2        14        37       111       119
         2        14        78       111       119
         2        14        72        78       111
         2        11        31        37       119
         2        11        14        37       119
         2        11        14        78       119
         2        11        31       107       119
         2        11        75       107       119
         2        11        75        78       119
         2         8        25        31       107
         2         8        11        31       107
         2         8        11        75       107
         2         8        25        95       107
         2         8        69        95       107
         2         8        69        75       107
         2         5        18        25        95
         2         5         8        25        95
         2         5         8        69        95
         2         5        18        85        95
         2         5        63        85        95
         2         5        63        69        95
         2         2         3        18        85
         2         2         5        18        85
         2         2         5        63        85
         2         2         3        58        85
         2         2        57        58        85
         2         2        57        63        85
         2         1         3         4        58
         2         1         2         3        58
         2         1         2        57        58
         2         1         4        58        59
         2         1        53        58        59
         2         1        53        57        58
         2         7        17        23        65
         2         4         7        17        65
         2         4        17        59        65
         2        17        23        65        93
         2        17        65        81        93
         2        17        59        65        81
         2        20        23        38        93
         2        17        20        23        93
         2        17        20        81        93
         2        20        38        93       123
         2        20        87        93       123
         2        20        81        87        93
         2        26        38        41       123
         2        20        26        38       123
         2        20        26        87       123
         2        26        41       123       129
         2        26        99       123       129
         2        26        87        99       123
         2        32        41        47       129
         2        26        32        41       129
         2        26        32        99       129
         2        32        47       129       141
         2        32       111       129       141
         2        32        99       111       129
         2        37        46        47       141
         2        32        37        47       141
         2        32        37       111       141
         2        37        46       137       141
         2        37       119       137       141
         2        37       111       119       141
         2        31        39        46       137
         2        31        37        46       137
         2        31        37       119       137
         2        31        39       127       137
         2        31       107       127       137
         2        31       107       119       137
         2        21        25        39       127
         2        25        31        39       127
         2        25        31       107       127
         2        21        25        91       127
         2        25        91        95       127
         2        25        95       107       127
         2         6        18        21        91
         2        18        21        25        91
         2        18        25        91        95
         2         6        18        64        91
         2        18        64        85        91
         2        18        85        91        95
         2         3         6        19        64
         2         3         6        18        64
         2         3        18        64        85
         2         3        19        64        86
         2         3        58        64        86
         2         3        58        64        85
         2         4         7        19        86
         2         3         4        19        86
         2         3         4        58        86
         2         4         7        65        86
         2         4        59        65        86
         2         4        58        59        86
         2        10        23        29        71
         2         7        10        23        71
         2         7        23        65        71
         2        23        29        71       105
         2        23        71        93       105
         2        23        65        71        93
         2        29        38        44       105
         2        23        29        38       105
         2        23        38        93       105
         2        38        44       105       135
         2        38       105       123       135
         2        38        93       105       123
         2        41        44        50       135
         2        38        41        44       135
         2        38        41       123       135
         2        41        50       135       147
         2        41       129       135       147
         2        41       123       129       135
         2        47        50        51       147
         2        41        47        50       147
         2        41        47       129       147
         2        47        51       147       151
         2        47       141       147       151
         2        47       129       141       147
         2        42        46        51       151
         2        46        47        51       151
         2        46        47       141       151
         2        42        46       133       151
         2        46       133       137       151
         2        46       137       141       151
         2        27        39        42       133
         2        39        42        46       133
         2        39        46       133       137
         2        27        39       103       133
         2        39       103       127       133
         2        39       127       133       137
         2         9        21        27       103
         2        21        27        39       103
         2        21        39       103       127
         2         9        21        70       103
         2        21        70        91       103
         2        21        91       103       127
         2         6         9        24        70
         2         6         9        21        70
         2         6        21        70        91
         2         6        24        70        94
         2         6        64        70        94
         2         6        64        70        91
         2        19        22        24        94
         2         6        19        24        94
         2         6        19        64        94
         2        19        22        92        94
         2        19        86        92        94
         2        19        64        86        94
         2         7        10        22        92
         2         7        19        22        92
         2         7        19        86        92
         2         7        10        71        92
         2         7        65        71        92
         2         7        65        86        92
         2        13        29        35        77
         2        10        13        29        77
         2        10        29        71        77
         2        29        35        77       117
         2        29        77       105       117
         2        29        71        77       105
         2        35        44        49       117
         2        29        35        44       117
         2        29        44       105       117
         2        44        49       117       143
         2        44       117       135       143
         2        44       105       117       135
         2        49        50        52       143
         2        44        49        50       143
         2        44        50       135       143
         2        50        52       143       149
         2        50       143       147       149
         2        50       135       143       147
         2        48        51        52       149
         2        50        51        52       149
         2        50        51       147       149
         2        48        51       145       149
         2        51       145       149       151
         2        51       147       149       151
         2        33        42        48       145
         2        42        48        51       145
         2        42        51       145       151
         2        33        42       115       145
         2        42       115       133       145
         2        42       133       145       151
         2        12        27        33       115
         2        27        33        42       115
         2        27        42       115       133
         2        12        27        76       115
         2        27        76       103       115