       N       E                     dE             d eps       ncg     rms          rms(c)
DAV:   1    -0.330447794283E+04   -0.33045E+04   -0.18928E+04 15130   0.110E+03
DAV:   2    -0.355166528202E+04   -0.24719E+03   -0.24216E+03 18360   0.285E+02
DAV:   3    -0.356213074473E+04   -0.10465E+02   -0.10438E+02 20980   0.598E+01
DAV:   4    -0.356227706519E+04   -0.14632E+00   -0.14628E+00 20510   0.559E+00
DAV:   5    -0.215532321847E+02    0.35407E+04   -0.25730E+01 15590   0.501E+01    0.109E+01
DAV:   6    -0.199044163168E+02    0.16488E+01   -0.32905E+00 17350   0.104E+01    0.754E+00
DAV:   7    -0.199185589766E+02   -0.14143E-01   -0.16031E+00 18150   0.534E+00    0.538E+00
DAV:   8    -0.199620387770E+02   -0.43480E-01   -0.14818E-01 18070   0.196E+00    0.342E+00
DAV:   9    -0.199475407018E+02    0.14498E-01   -0.13122E-02 18290   0.637E-01    0.191E+00
DAV:  10    -0.199444784896E+02    0.30622E-02   -0.97643E-03 18460   0.371E-01    0.961E-01
DAV:  11    -0.199442120496E+02    0.26644E-03   -0.15603E-03 18140   0.186E-01    0.523E-01
DAV:  12    -0.199441144539E+02    0.97596E-04   -0.25905E-04 18160   0.101E-01    0.299E-01
DAV:  13    -0.199441268091E+02   -0.12355E-04   -0.11731E-04 18420   0.653E-02    0.170E-01
DAV:  14    -0.199441612340E+02   -0.34425E-04   -0.43073E-05 18150   0.385E-02    0.967E-02
DAV:  15    -0.199441862604E+02   -0.25026E-04   -0.14738E-05 18150   0.219E-02    0.559E-02
DAV:  16    -0.199442013550E+02   -0.15095E-04   -0.64740E-06 18100   0.137E-02    0.332E-02
DAV:  17    -0.199442099112E+02   -0.85562E-05   -0.31221E-06 18120   0.905E-03    0.205E-02
DAV:  18    -0.199442146096E+02   -0.46984E-05   -0.15172E-06 17910   0.609E-03    0.130E-02
DAV:  19    -0.199442171223E+02   -0.25127E-05   -0.74842E-07 17890   0.413E-03    0.844E-03
DAV:  20    -0.199442184516E+02   -0.13293E-05   -0.37096E-07 16060   0.283E-03    0.548E-03
DAV:  21    -0.199442191523E+02   -0.70075E-06   -0.18831E-07 15540   0.202E-03    0.362E-03
DAV:  22    -0.199442195112E+02   -0.35885E-06   -0.94435E-08 15410   0.140E-03    0.243E-03
DAV:  23    -0.199442197000E+02   -0.18885E-06   -0.47287E-08 13890   0.982E-04    0.164E-03
DAV:  24    -0.199442197943E+02   -0.94276E-07   -0.24564E-08 12650   0.705E-04
   1 F= -.19944220E+02 E0= -.19944220E+02  d E =-.199442E+02
       N       E                     dE             d eps       ncg     rms          rms(c)
DAV:   1    -0.199814852328E+02   -0.37266E-01   -0.96925E-01 15560   0.902E+00    0.139E+00
DAV:   2    -0.199538394618E+02    0.27646E-01   -0.41781E-02 17940   0.253E+00    0.518E-01
DAV:   3    -0.199466805966E+02    0.71589E-02   -0.19508E-02 17910   0.129E+00    0.443E-01
DAV:   4    -0.199460155846E+02    0.66501E-03   -0.34261E-03 20390   0.354E-01    0.321E-01
DAV:   5    -0.199459188973E+02    0.96687E-04   -0.50538E-04 20840   0.105E-01    0.186E-01
DAV:   6    -0.199459145338E+02    0.43635E-05   -0.11241E-04 23040   0.465E-02    0.110E-01
DAV:   7    -0.199459209877E+02   -0.64539E-05   -0.20067E-05 23200   0.243E-02    0.653E-02
DAV:   8    -0.199459264501E+02   -0.54624E-05   -0.48003E-06 22490   0.135E-02    0.387E-02
DAV:   9    -0.199459298173E+02   -0.33672E-05   -0.11209E-06 21600   0.723E-03    0.230E-02
DAV:  10    -0.199459317804E+02   -0.19631E-05   -0.39664E-07 17940   0.434E-03    0.137E-02
DAV:  11    -0.199459329203E+02   -0.11400E-05   -0.13524E-07 13380   0.269E-03    0.823E-03
DAV:  12    -0.199459335820E+02   -0.66171E-06   -0.67137E-08 12370   0.189E-03    0.498E-03
DAV:  13    -0.199459339686E+02   -0.38656E-06   -0.25122E-08 11560   0.118E-03    0.301E-03
DAV:  14    -0.199459341955E+02   -0.22686E-06   -0.11113E-08 11210   0.770E-04    0.183E-03
DAV:  15    -0.199459343284E+02   -0.13290E-06   -0.43887E-09 10350   0.485E-04    0.112E-03
DAV:  16    -0.199459344066E+02   -0.78232E-07   -0.20619E-09  9760   0.321E-04
   2 F= -.19945934E+02 E0= -.19945934E+02  d E =-.171461E-02
       N       E                     dE             d eps       ncg     rms          rms(c)
DAV:   1    -0.199475824120E+02   -0.16481E-02   -0.41672E-02 15530   0.188E+00    0.294E-01
DAV:   2    -0.199464221597E+02    0.11603E-02   -0.17739E-03 17890   0.525E-01    0.108E-01
DAV:   3    -0.199461108795E+02    0.31128E-03   -0.82992E-04 17980   0.268E-01    0.949E-02
DAV:   4    -0.199460776871E+02    0.33192E-04   -0.14874E-04 20290   0.746E-02    0.690E-02
DAV:   5    -0.199460696455E+02    0.80416E-05   -0.21856E-05 20670   0.220E-02    0.401E-02
DAV:   6    -0.199460666909E+02    0.29546E-05   -0.48519E-06 23060   0.963E-03    0.237E-02
DAV:   7    -0.199460651674E+02    0.15236E-05   -0.85538E-07 22900   0.505E-03    0.140E-02
DAV:   8    -0.199460642880E+02    0.87939E-06   -0.19020E-07 15150   0.280E-03    0.830E-03
DAV:   9    -0.199460637600E+02    0.52797E-06   -0.61962E-08 11380   0.166E-03    0.492E-03
DAV:  10    -0.199460634375E+02    0.32247E-06   -0.26294E-08 10930   0.104E-03    0.294E-03
DAV:  11    -0.199460632409E+02    0.19669E-06   -0.11025E-08  9600   0.659E-04    0.177E-03
DAV:  12    -0.199460631211E+02    0.11972E-06   -0.46544E-09  9020   0.417E-04    0.106E-03
DAV:  13    -0.199460630485E+02    0.72588E-07   -0.20834E-09  8710   0.280E-04
   3 F= -.19946063E+02 E0= -.19946063E+02  d E =-.184325E-02
       N       E                     dE             d eps       ncg     rms          rms(c)
DAV:   1    -0.199461379208E+02   -0.74800E-04   -0.12846E-02 15120   0.590E-01    0.606E-02
DAV:   2    -0.199463292104E+02   -0.19129E-03   -0.73896E-04 17710   0.128E-01    0.346E-02
DAV:   3    -0.199463099584E+02    0.19252E-04   -0.42903E-05 18090   0.369E-02    0.184E-02
DAV:   4    -0.199463028556E+02    0.71028E-05   -0.17533E-05 18030   0.201E-02    0.117E-02
DAV:   5    -0.199463023455E+02    0.51009E-06   -0.52645E-06 18060   0.107E-02    0.685E-03
DAV:   6    -0.199463021045E+02    0.24107E-06   -0.62900E-07 18080   0.456E-03    0.368E-03
DAV:   7    -0.199463020020E+02    0.10252E-06   -0.14373E-07 12920   0.240E-03    0.240E-03
DAV:   8    -0.199463019823E+02    0.19674E-07   -0.49448E-08 12160   0.139E-03
   4 F= -.19946302E+02 E0= -.19946302E+02  d E =-.238934E-03
       N       E                     dE             d eps       ncg     rms          rms(c)
DAV:   1    -0.199460649746E+02    0.23703E-03   -0.25582E-02 15120   0.832E-01    0.852E-02
DAV:   2    -0.199464453786E+02   -0.38040E-03   -0.14708E-03 17730   0.180E-01    0.487E-02
DAV:   3    -0.199464069416E+02    0.38437E-04   -0.85478E-05 18110   0.522E-02    0.261E-02
DAV:   4    -0.199463927319E+02    0.14210E-04   -0.34895E-05 18050   0.284E-02    0.166E-02
DAV:   5    -0.199463916599E+02    0.10720E-05   -0.10476E-05 18020   0.151E-02    0.978E-03
DAV:   6    -0.199463911448E+02    0.51506E-06   -0.12545E-06 18120   0.647E-03    0.529E-03
DAV:   7    -0.199463909428E+02    0.20202E-06   -0.29238E-07 15480   0.341E-03    0.345E-03
DAV:   8    -0.199463909030E+02    0.39831E-07   -0.91959E-08 12660   0.193E-03
   5 F= -.19946391E+02 E0= -.19946391E+02  d E =-.327854E-03
       N       E                     dE             d eps       ncg     rms          rms(c)
DAV:   1    -0.199463852126E+02    0.57303E-05   -0.82253E-04 15240   0.149E-01    0.152E-02
DAV:   2    -0.199463978821E+02   -0.12669E-04   -0.47179E-05 17510   0.322E-02    0.858E-03
DAV:   3    -0.199463968186E+02    0.10635E-05   -0.26908E-06 18110   0.915E-03    0.440E-03
DAV:   4    -0.199463963722E+02    0.44642E-06   -0.10958E-06 17840   0.496E-03    0.274E-03
DAV:   5    -0.199463963164E+02    0.55740E-07   -0.33087E-07 17950   0.264E-03
   6 F= -.19946396E+02 E0= -.19946396E+02  d E =-.333268E-03
       N       E                     dE             d eps       ncg     rms          rms(c)
DAV:   1    -0.199464909523E+02   -0.94580E-04   -0.64838E-03 15370   0.490E-01    0.576E-02
DAV:   2    -0.199464760091E+02    0.14943E-04   -0.13557E-04 18610   0.101E-01    0.338E-02
DAV:   3    -0.199464451744E+02    0.30835E-04   -0.20167E-05 18520   0.347E-02    0.183E-02
DAV:   4    -0.199464358067E+02    0.93677E-05   -0.94146E-06 18140   0.198E-02    0.109E-02
DAV:   5    -0.199464334584E+02    0.23483E-05   -0.28021E-06 17940   0.105E-02    0.700E-03
DAV:   6    -0.199464328248E+02    0.63356E-06   -0.65232E-07 18000   0.540E-03    0.469E-03
DAV:   7    -0.199464326543E+02    0.17056E-06   -0.16880E-07 14610   0.291E-03    0.316E-03
DAV:   8    -0.199464326096E+02    0.44716E-07   -0.52635E-08 11820   0.174E-03
   7 F= -.19946433E+02 E0= -.19946433E+02  d E =-.362931E-04
       N       E                     dE             d eps       ncg     rms          rms(c)
DAV:   1    -0.199464681948E+02   -0.35541E-04   -0.32801E-03 15540   0.349E-01    0.409E-02
DAV:   2    -0.199464602192E+02    0.79756E-05   -0.68496E-05 18680   0.719E-02    0.240E-02
DAV:   3    -0.199464445106E+02    0.15709E-04   -0.10302E-05 18520   0.248E-02    0.131E-02
DAV:   4    -0.199464397629E+02    0.47477E-05   -0.47810E-06 18230   0.142E-02    0.791E-03
DAV:   5    -0.199464385901E+02    0.11728E-05   -0.14240E-06 17940   0.751E-03    0.511E-03
DAV:   6    -0.199464382833E+02    0.30679E-06   -0.32832E-07 16400   0.386E-03    0.343E-03
DAV:   7    -0.199464382061E+02    0.77194E-07   -0.91497E-08 12510   0.217E-03
   8 F= -.19946438E+02 E0= -.19946438E+02  d E =-.418897E-04
