 vasp.6.1.0 28Jan20 (build Jun 21 2024 05:31:27) complex                         
 executed on              LinuxNV date 2024.07.27  18:17:15
 running   10 mpi-ranks, with    1 threads/rank
 distrk:  each k-point on   10 cores,    1 groups
 distr:  one band on NCORE=   1 cores,   10 groups


--------------------------------------------------------------------------------------------------------


 INCAR:
 POTCAR:    PAW_PBE Ba_sv 06Sep2000               
 POTCAR:    PAW_PBE Cd 06Sep2000                  
 POTCAR:    PAW_PBE P 06Sep2000                   
 POTCAR:    PAW_PBE Ba_sv 06Sep2000               
   SHA256 =  db99e82e473f9273fc04f241d4a23dc413358649e2d1724098d22351b75b003b Ba_sv/POTCAR          
   COPYR  = (c) Copyright 06Sep2000 Georg Kresse                                                    
   COPYR  = This file is part of the software VASP. Any use, copying, and all other rights are regul
   COPYR  = If you do not have a valid VASP license, you may not use, copy or distribute this file. 
   VRHFIN =Ba: 5s5p6s                                                                               
   LEXCH  = PE                                                                                      
   EATOM  =   700.8560 eV,   51.5115 Ry                                                             
                                                                                                    
   TITEL  = PAW_PBE Ba_sv 06Sep2000                                                                 
   LULTRA =        F    use ultrasoft PP ?                                                          
   IUNSCR =        1    unscreen: 0-lin 1-nonlin 2-no                                               
   RPACOR =    2.400    partial core radius                                                         
   POMASS =  137.327; ZVAL   =   10.000    mass and valenz                                          
   RCORE  =    2.800    outmost cutoff radius                                                       
   RWIGS  =    3.740; RWIGS  =    1.979    wigner-seitz radius (au A)                               
   ENMAX  =  187.181; ENMIN  =  140.386 eV                                                          
   RCLOC  =    2.516    cutoff for local pot                                                        
   LCOR   =        T    correct aug charges                                                         
   LPAW   =        T    paw PP                                                                      
   EAUG   =  351.165                                                                                
   DEXC   =    0.000                                                                                
   RMAX   =    2.865    core radius for proj-oper                                                   
   RAUG   =    1.300    factor for augmentation sphere                                              
   RDEP   =    2.976    radius for radial grids                                                     
   RDEPT  =    2.289    core radius for aug-charge                                                  
                                                                                                    
   Atomic configuration                                                                             
   13 entries                                                                                       
     n  l   j            E        occ.                                                              
     1  0  0.50    -37249.5946   2.0000                                                             
     2  0  0.50     -5887.1925   2.0000                                                             
     2  1  1.50     -5278.3977   6.0000                                                             
     3  0  0.50     -1242.7293   2.0000                                                             
     3  1  1.50     -1047.6609   6.0000                                                             
     3  2  2.50      -764.6158  10.0000                                                             
     4  0  0.50      -243.8228   2.0000                                                             
     4  1  1.50      -180.9218   6.0000                                                             
     4  2  2.50       -89.6477  10.0000                                                             
     5  0  0.50       -33.6549   2.0000                                                             
     6  0  0.50        -3.2247   1.9900                                                             
     5  1  1.50       -18.7193   6.0000                                                             
     5  2  2.50        -2.0115   0.0100                                                             
   Description                                                                                      
     l       E           TYP  RCUT    TYP  RCUT                                                     
     0    -33.6549039     23  2.800                                                                 
     0     -3.2246942     23  2.800                                                                 
     1    -18.7193050     23  2.700                                                                 
     1     27.2116520     23  2.700                                                                 
     2     -2.0115002     23  2.700                                                                 
     2      0.3057420     23  2.700                                                                 
  local pseudopotential read in
  partial core-charges read in
  partial kinetic energy density read in
  atomic valenz-charges read in
  non local Contribution for L=            0  read in
    real space projection operators read in
  non local Contribution for L=            0  read in
    real space projection operators read in
  non local Contribution for L=            1  read in
    real space projection operators read in
  non local Contribution for L=            1  read in
    real space projection operators read in
  non local Contribution for L=            2  read in
    real space projection operators read in
  non local Contribution for L=            2  read in
    real space projection operators read in
    PAW grid and wavefunctions read in
 
   number of l-projection  operators is LMAX  =            6
   number of lm-projection operators is LMMAX =           18
 
 POTCAR:    PAW_PBE Cd 06Sep2000                  
   SHA256 =  8b7ca71966beae5276c8bb910adb3ecc013a3354c27473914c94cd54c83be4f7 Cd/POTCAR             
   COPYR  = (c) Copyright 06Sep2000 Georg Kresse                                                    
   COPYR  = This file is part of the software VASP. Any use, copying, and all other rights are regul
   COPYR  = If you do not have a valid VASP license, you may not use, copy or distribute this file. 
   VRHFIN =Cd : s2 d10                                                                              
   LEXCH  = PE                                                                                      
   EATOM  =  1293.1815 eV,   95.0462 Ry                                                             
                                                                                                    
   TITEL  = PAW_PBE Cd 06Sep2000                                                                    
   LULTRA =        F    use ultrasoft PP ?                                                          
   IUNSCR =        1    unscreen: 0-lin 1-nonlin 2-no                                               
   RPACOR =    2.000    partial core radius                                                         
   POMASS =  112.411; ZVAL   =   12.000    mass and valenz                                          
   RCORE  =    2.300    outmost cutoff radius                                                       
   RWIGS  =    2.980; RWIGS  =    1.577    wigner-seitz radius (au A)                               
   ENMAX  =  274.336; ENMIN  =  205.752 eV                                                          
   RCLOC  =    2.054    cutoff for local pot                                                        
   LCOR   =        T    correct aug charges                                                         
   LPAW   =        T    paw PP                                                                      
   EAUG   =  456.106                                                                                
   DEXC   =    0.000                                                                                
   RMAX   =    2.358    core radius for proj-oper                                                   
   RAUG   =    1.300    factor for augmentation sphere                                              
   RDEP   =    2.450    radius for radial grids                                                     
   RDEPT  =    1.955    core radius for aug-charge                                                  
                                                                                                    
   Atomic configuration                                                                             
   12 entries                                                                                       
     n  l   j            E        occ.                                                              
     1  0  0.50    -26519.7817   2.0000                                                             
     2  0  0.50     -3936.9612   2.0000                                                             
     2  1  1.50     -3532.2230   6.0000                                                             
     3  0  0.50      -733.7908   2.0000                                                             
     3  1  1.50      -601.0792   6.0000                                                             
     3  2  2.50      -393.5307  10.0000                                                             
     4  0  0.50      -105.8977   2.0000                                                             
     4  1  1.50       -66.9488   6.0000                                                             
     4  2  2.50       -11.7331  10.0000                                                             
     5  0  0.50        -5.6592   2.0000                                                             
     5  1  0.50        -1.3606   0.0000                                                             
     4  3  2.50        -1.3606   0.0000                                                             
   Description                                                                                      
     l       E           TYP  RCUT    TYP  RCUT                                                     
     2    -11.7331479     23  2.300                                                                 
     2    -13.0937305     23  2.300                                                                 
     0     -5.6591502     23  2.300                                                                 
     0     -1.5561433     23  2.300                                                                 
     1     -2.7211652     23  2.300                                                                 
     1      8.3548275     23  2.300                                                                 
  local pseudopotential read in
  partial core-charges read in
  partial kinetic energy density read in
  atomic valenz-charges read in
  non local Contribution for L=            2  read in
    real space projection operators read in
  non local Contribution for L=            2  read in
    real space projection operators read in
  non local Contribution for L=            0  read in
    real space projection operators read in
  non local Contribution for L=            0  read in
    real space projection operators read in
  non local Contribution for L=            1  read in
    real space projection operators read in
  non local Contribution for L=            1  read in
    real space projection operators read in
    PAW grid and wavefunctions read in
 
   number of l-projection  operators is LMAX  =            6
   number of lm-projection operators is LMMAX =           18
 
 POTCAR:    PAW_PBE P 06Sep2000                   
   SHA256 =  df60c54a93efe35c9e85ae94c010c75e9f6960a95d5595d7cdba4096d109af88 P/POTCAR              
   COPYR  = (c) Copyright 06Sep2000 Georg Kresse                                                    
   COPYR  = This file is part of the software VASP. Any use, copying, and all other rights are regul
   COPYR  = If you do not have a valid VASP license, you may not use, copy or distribute this file. 
   VRHFIN =P : s2p3                                                                                 
   LEXCH  = PE                                                                                      
   EATOM  =   176.0430 eV,   12.9388 Ry                                                             
                                                                                                    
   TITEL  = PAW_PBE P 06Sep2000                                                                     
   LULTRA =        F    use ultrasoft PP ?                                                          
   IUNSCR =        1    unscreen: 0-lin 1-nonlin 2-no                                               
   RPACOR =    1.500    partial core radius                                                         
   POMASS =   30.974; ZVAL   =    5.000    mass and valenz                                          
   RCORE  =    1.900    outmost cutoff radius                                                       
   RWIGS  =    2.330; RWIGS  =    1.233    wigner-seitz radius (au A)                               
   ENMAX  =  255.040; ENMIN  =  191.280 eV                                                          
   ICORE  =        2    local potential                                                             
   LCOR   =        T    correct aug charges                                                         
   LPAW   =        T    paw PP                                                                      
   EAUG   =  342.924                                                                                
   DEXC   =    0.000                                                                                
   RMAX   =    1.935    core radius for proj-oper                                                   
   RAUG   =    1.300    factor for augmentation sphere                                              
   RDEP   =    1.931    radius for radial grids                                                     
   RDEPT  =    1.794    core radius for aug-charge                                                  
                                                                                                    
   Atomic configuration                                                                             
    6 entries                                                                                       
     n  l   j            E        occ.                                                              
     1  0  0.50     -2084.0982   2.0000                                                             
     2  0  0.50      -173.9859   2.0000                                                             
     2  1  1.50      -124.4865   6.0000                                                             
     3  0  0.50       -13.9692   2.0000                                                             
     3  1  0.50        -5.5067   3.0000                                                             
     3  2  1.50        -5.4423   0.0000                                                             
   Description                                                                                      
     l       E           TYP  RCUT    TYP  RCUT                                                     
     0    -13.9691527     23  1.900                                                                 
     0    -11.7794650     23  1.900                                                                 
     1     -5.5066937     23  1.900                                                                 
     1     -0.2556953     23  1.900                                                                 
     2     -5.4423304     23  1.900                                                                 
  local pseudopotential read in
  partial core-charges read in
  partial kinetic energy density read in
  atomic valenz-charges read in
  non local Contribution for L=            0  read in
    real space projection operators read in
  non local Contribution for L=            0  read in
    real space projection operators read in
  non local Contribution for L=            1  read in
    real space projection operators read in
  non local Contribution for L=            1  read in
    real space projection operators read in
    PAW grid and wavefunctions read in
 
   number of l-projection  operators is LMAX  =            4
   number of lm-projection operators is LMMAX =            8
 
  PAW_PBE Ba_sv 06Sep2000               :
 energy of atom  1       EATOM= -700.8560
 kinetic energy error for atom=    0.0014 (will be added to EATOM!!)
  PAW_PBE Cd 06Sep2000                  :
 energy of atom  2       EATOM=-1293.1815
 kinetic energy error for atom=    0.0223 (will be added to EATOM!!)
  PAW_PBE P 06Sep2000                   :
 energy of atom  3       EATOM= -176.0430
 kinetic energy error for atom=    0.0023 (will be added to EATOM!!)
 
 
 POSCAR: Ba1 Cd2 P2
  positions in direct lattice
  No initial velocities read in
 exchange correlation table for  LEXCH =        8
   RHO(1)=    0.500       N(1)  =     2000
   RHO(2)=  100.500       N(2)  =     4000
 


--------------------------------------------------------------------------------------------------------


 ion  position               nearest neighbor table
   1  0.000  0.000  0.000-   4 3.28   5 3.28   4 3.28   5 3.28   4 3.28   5 3.28   2 3.81   3 3.81
                             3 3.81   2 3.81   2 3.81   3 3.81
   2  0.667  0.333  0.370-   5 2.68   5 2.68   5 2.68   4 2.76   3 3.24   3 3.24   3 3.24   1 3.81
                             1 3.81   1 3.81
   3  0.333  0.667  0.630-   4 2.68   4 2.68   4 2.68   5 2.76   2 3.24   2 3.24   2 3.24   1 3.81
                             1 3.81   1 3.81
   4  0.667  0.333  0.732-   3 2.68   3 2.68   3 2.68   2 2.76   1 3.28   1 3.28   1 3.28
   5  0.333  0.667  0.268-   2 2.68   2 2.68   2 2.68   3 2.76   1 3.28   1 3.28   1 3.28
 

IMPORTANT INFORMATION: All symmetrisations will be switched off!
NOSYMM: (Re-)initialisation of all symmetry stuff for point group C_1.


----------------------------------------------------------------------------------------

                                     Primitive cell                                     

  volume of cell :     129.8405

  direct lattice vectors                    reciprocal lattice vectors
     4.437200700  0.000000000  0.000000000     0.225367313  0.130115879 -0.000000000
    -2.218600350  3.842728528  0.000000000     0.000000000  0.260231758  0.000000000
     0.000000000  0.000000000  7.614852790     0.000000000 -0.000000000  0.131322302

  length of vectors
     4.437200700  4.437200700  7.614852790     0.260231758  0.260231758  0.131322302

  position of ions in fractional coordinates (direct lattice)
     0.000000000  0.000000000  0.000000000
     0.666666667  0.333333333  0.369688040
     0.333333333  0.666666667  0.630311960
     0.666666667  0.333333333  0.731571450
     0.333333333  0.666666667  0.268428550

  ion indices of the primitive-cell ions
   primitive index   ion index
                 1           1
                 2           2
                 3           3
                 4           4
                 5           5

----------------------------------------------------------------------------------------

 
 
 KPOINTS: Num irrep kpoints: 12                   

Automatic generation of k-mesh.
Space group operators:
 irot       det(A)        alpha          n_x          n_y          n_z        tau_x        tau_y        tau_z
    1     1.000000     0.000001     1.000000     0.000000     0.000000     0.000000     0.000000     0.000000
 TETIRR: Found   1500 inequivalent tetrahedra from     3000
 
 Subroutine IBZKPT returns following result:
 ===========================================
 
 Found    252 irreducible k-points:
 
 Following reciprocal coordinates:
            Coordinates               Weight
  0.000000  0.000000  0.000000      1.000000
  0.100000  0.000000  0.000000      2.000000
  0.100000 -0.100000  0.000000      2.000000
  0.000000 -0.100000  0.000000      2.000000
  0.200000  0.000000  0.000000      2.000000
  0.200000 -0.200000  0.000000      2.000000
  0.000000 -0.200000  0.000000      2.000000
  0.300000  0.000000  0.000000      2.000000
  0.300000 -0.300000  0.000000      2.000000
  0.000000 -0.300000  0.000000      2.000000
  0.400000  0.000000  0.000000      2.000000
  0.400000 -0.400000  0.000000      2.000000
  0.000000 -0.400000  0.000000      2.000000
  0.500000  0.000000  0.000000      1.000000
  0.500000  0.500000  0.000000      1.000000
  0.000000  0.500000  0.000000      1.000000
  0.100000  0.100000  0.000000      2.000000
  0.200000 -0.100000  0.000000      2.000000
  0.100000 -0.200000  0.000000      2.000000
  0.200000  0.100000  0.000000      2.000000
  0.300000 -0.200000  0.000000      2.000000
  0.100000 -0.300000  0.000000      2.000000
 -0.100000 -0.200000  0.000000      2.000000
  0.200000 -0.300000  0.000000      2.000000
  0.300000 -0.100000  0.000000      2.000000
  0.300000  0.100000  0.000000      2.000000
  0.400000 -0.300000  0.000000      2.000000
  0.100000 -0.400000  0.000000      2.000000
 -0.100000 -0.300000  0.000000      2.000000
  0.300000 -0.400000  0.000000      2.000000
  0.400000 -0.100000  0.000000      2.000000
  0.400000  0.100000  0.000000      2.000000
  0.500000 -0.400000  0.000000      2.000000
  0.100000  0.500000  0.000000      2.000000
 -0.100000 -0.400000  0.000000      2.000000
  0.400000  0.500000  0.000000      2.000000
  0.500000 -0.100000  0.000000      2.000000
  0.200000  0.200000  0.000000      2.000000
  0.400000 -0.200000  0.000000      2.000000
  0.200000 -0.400000  0.000000      2.000000
  0.300000  0.200000  0.000000      2.000000
  0.500000 -0.300000  0.000000      2.000000
  0.200000  0.500000  0.000000      2.000000
 -0.200000 -0.300000  0.000000      2.000000
  0.300000  0.500000  0.000000      2.000000
  0.500000 -0.200000  0.000000      2.000000
  0.400000  0.200000  0.000000      2.000000
 -0.400000 -0.400000  0.000000      2.000000
  0.200000  0.400000  0.000000      2.000000
  0.300000  0.300000  0.000000      2.000000
 -0.400000 -0.300000  0.000000      2.000000
  0.300000  0.400000  0.000000      2.000000
  0.000000  0.000000  0.200000      2.000000
  0.100000  0.000000  0.200000      2.000000
  0.100000 -0.100000  0.200000      2.000000
  0.000000 -0.100000  0.200000      2.000000
 -0.100000  0.000000  0.200000      2.000000
 -0.100000  0.100000  0.200000      2.000000
  0.000000  0.100000  0.200000      2.000000
  0.200000  0.000000  0.200000      2.000000
  0.200000 -0.200000  0.200000      2.000000
  0.000000 -0.200000  0.200000      2.000000
 -0.200000  0.000000  0.200000      2.000000
 -0.200000  0.200000  0.200000      2.000000
  0.000000  0.200000  0.200000      2.000000
  0.300000  0.000000  0.200000      2.000000
  0.300000 -0.300000  0.200000      2.000000
  0.000000 -0.300000  0.200000      2.000000
 -0.300000  0.000000  0.200000      2.000000
 -0.300000  0.300000  0.200000      2.000000
  0.000000  0.300000  0.200000      2.000000
  0.400000  0.000000  0.200000      2.000000
  0.400000 -0.400000  0.200000      2.000000
  0.000000 -0.400000  0.200000      2.000000
 -0.400000  0.000000  0.200000      2.000000
 -0.400000  0.400000  0.200000      2.000000
  0.000000  0.400000  0.200000      2.000000
  0.500000  0.000000  0.200000      2.000000
  0.500000  0.500000  0.200000      2.000000
  0.000000  0.500000  0.200000      2.000000
  0.100000  0.100000  0.200000      2.000000
  0.200000 -0.100000  0.200000      2.000000
  0.100000 -0.200000  0.200000      2.000000
 -0.100000 -0.100000  0.200000      2.000000
 -0.200000  0.100000  0.200000      2.000000
 -0.100000  0.200000  0.200000      2.000000
  0.200000  0.100000  0.200000      2.000000
  0.300000 -0.200000  0.200000      2.000000
  0.100000 -0.300000  0.200000      2.000000
 -0.200000 -0.100000  0.200000      2.000000
 -0.300000  0.200000  0.200000      2.000000
 -0.100000  0.300000  0.200000      2.000000
 -0.100000 -0.200000 -0.200000      2.000000
  0.200000 -0.300000 -0.200000      2.000000
  0.300000 -0.100000 -0.200000      2.000000
  0.100000  0.200000 -0.200000      2.000000
 -0.200000  0.300000 -0.200000      2.000000
 -0.300000  0.100000 -0.200000      2.000000
  0.300000  0.100000  0.200000      2.000000
  0.400000 -0.300000  0.200000      2.000000
  0.100000 -0.400000  0.200000      2.000000
 -0.300000 -0.100000  0.200000      2.000000
 -0.400000  0.300000  0.200000      2.000000
 -0.100000  0.400000  0.200000      2.000000
 -0.100000 -0.300000 -0.200000      2.000000
  0.300000 -0.400000 -0.200000      2.000000
  0.400000 -0.100000 -0.200000      2.000000
  0.100000  0.300000 -0.200000      2.000000
 -0.300000  0.400000 -0.200000      2.000000
 -0.400000  0.100000 -0.200000      2.000000
  0.400000  0.100000  0.200000      2.000000
  0.500000 -0.400000  0.200000      2.000000
  0.100000  0.500000  0.200000      2.000000
 -0.400000 -0.100000  0.200000      2.000000
  0.500000  0.400000  0.200000      2.000000
 -0.100000  0.500000  0.200000      2.000000
 -0.100000 -0.400000 -0.200000      2.000000
  0.400000  0.500000 -0.200000      2.000000
  0.500000 -0.100000 -0.200000      2.000000
  0.100000  0.400000 -0.200000      2.000000
 -0.400000  0.500000 -0.200000      2.000000
  0.500000  0.100000 -0.200000      2.000000
  0.200000  0.200000  0.200000      2.000000
  0.400000 -0.200000  0.200000      2.000000
  0.200000 -0.400000  0.200000      2.000000
 -0.200000 -0.200000  0.200000      2.000000
 -0.400000  0.200000  0.200000      2.000000
 -0.200000  0.400000  0.200000      2.000000
  0.300000  0.200000  0.200000      2.000000
  0.500000 -0.300000  0.200000      2.000000
  0.200000  0.500000  0.200000      2.000000
 -0.300000 -0.200000  0.200000      2.000000
  0.500000  0.300000  0.200000      2.000000
 -0.200000  0.500000  0.200000      2.000000
 -0.200000 -0.300000 -0.200000      2.000000
  0.300000  0.500000 -0.200000      2.000000
  0.500000 -0.200000 -0.200000      2.000000
  0.200000  0.300000 -0.200000      2.000000
 -0.300000  0.500000 -0.200000      2.000000
  0.500000  0.200000 -0.200000      2.000000
  0.400000  0.200000  0.200000      2.000000
 -0.400000 -0.400000  0.200000      2.000000
  0.200000  0.400000  0.200000      2.000000
 -0.400000 -0.200000  0.200000      2.000000
  0.400000  0.400000  0.200000      2.000000
 -0.200000 -0.400000  0.200000      2.000000
  0.300000  0.300000  0.200000      2.000000
 -0.400000 -0.300000  0.200000      2.000000
  0.300000  0.400000  0.200000      2.000000
 -0.300000 -0.300000  0.200000      2.000000
  0.400000  0.300000  0.200000      2.000000
 -0.300000 -0.400000  0.200000      2.000000
  0.000000  0.000000  0.400000      2.000000
  0.100000  0.000000  0.400000      2.000000
  0.100000 -0.100000  0.400000      2.000000
  0.000000 -0.100000  0.400000      2.000000
 -0.100000  0.000000  0.400000      2.000000
 -0.100000  0.100000  0.400000      2.000000
  0.000000  0.100000  0.400000      2.000000
  0.200000  0.000000  0.400000      2.000000
  0.200000 -0.200000  0.400000      2.000000
  0.000000 -0.200000  0.400000      2.000000
 -0.200000  0.000000  0.400000      2.000000
 -0.200000  0.200000  0.400000      2.000000
  0.000000  0.200000  0.400000      2.000000
  0.300000  0.000000  0.400000      2.000000
  0.300000 -0.300000  0.400000      2.000000
  0.000000 -0.300000  0.400000      2.000000
 -0.300000  0.000000  0.400000      2.000000
 -0.300000  0.300000  0.400000      2.000000
  0.000000  0.300000  0.400000      2.000000
  0.400000  0.000000  0.400000      2.000000
  0.400000 -0.400000  0.400000      2.000000
  0.000000 -0.400000  0.400000      2.000000
 -0.400000  0.000000  0.400000      2.000000
 -0.400000  0.400000  0.400000      2.000000
  0.000000  0.400000  0.400000      2.000000
  0.500000  0.000000  0.400000      2.000000
  0.500000  0.500000  0.400000      2.000000
  0.000000  0.500000  0.400000      2.000000
  0.100000  0.100000  0.400000      2.000000
  0.200000 -0.100000  0.400000      2.000000
  0.100000 -0.200000  0.400000      2.000000
 -0.100000 -0.100000  0.400000      2.000000
 -0.200000  0.100000  0.400000      2.000000
 -0.100000  0.200000  0.400000      2.000000
  0.200000  0.100000  0.400000      2.000000
  0.300000 -0.200000  0.400000      2.000000
  0.100000 -0.300000  0.400000      2.000000
 -0.200000 -0.100000  0.400000      2.000000
 -0.300000  0.200000  0.400000      2.000000
 -0.100000  0.300000  0.400000      2.000000
 -0.100000 -0.200000 -0.400000      2.000000
  0.200000 -0.300000 -0.400000      2.000000
  0.300000 -0.100000 -0.400000      2.000000
  0.100000  0.200000 -0.400000      2.000000
 -0.200000  0.300000 -0.400000      2.000000
 -0.300000  0.100000 -0.400000      2.000000
  0.300000  0.100000  0.400000      2.000000
  0.400000 -0.300000  0.400000      2.000000
  0.100000 -0.400000  0.400000      2.000000
 -0.300000 -0.100000  0.400000      2.000000
 -0.400000  0.300000  0.400000      2.000000
 -0.100000  0.400000  0.400000      2.000000
 -0.100000 -0.300000 -0.400000      2.000000
  0.300000 -0.400000 -0.400000      2.000000
  0.400000 -0.100000 -0.400000      2.000000
  0.100000  0.300000 -0.400000      2.000000
 -0.300000  0.400000 -0.400000      2.000000
 -0.400000  0.100000 -0.400000      2.000000
  0.400000  0.100000  0.400000      2.000000
  0.500000 -0.400000  0.400000      2.000000
  0.100000  0.500000  0.400000      2.000000
 -0.400000 -0.100000  0.400000      2.000000
  0.500000  0.400000  0.400000      2.000000
 -0.100000  0.500000  0.400000      2.000000
 -0.100000 -0.400000 -0.400000      2.000000
  0.400000  0.500000 -0.400000      2.000000
  0.500000 -0.100000 -0.400000      2.000000
  0.100000  0.400000 -0.400000      2.000000
 -0.400000  0.500000 -0.400000      2.000000
  0.500000  0.100000 -0.400000      2.000000
  0.200000  0.200000  0.400000      2.000000
  0.400000 -0.200000  0.400000      2.000000
  0.200000 -0.400000  0.400000      2.000000
 -0.200000 -0.200000  0.400000      2.000000
 -0.400000  0.200000  0.400000      2.000000
 -0.200000  0.400000  0.400000      2.000000
  0.300000  0.200000  0.400000      2.000000
  0.500000 -0.300000  0.400000      2.000000
  0.200000  0.500000  0.400000      2.000000
 -0.300000 -0.200000  0.400000      2.000000
  0.500000  0.300000  0.400000      2.000000
 -0.200000  0.500000  0.400000      2.000000
 -0.200000 -0.300000 -0.400000      2.000000
  0.300000  0.500000 -0.400000      2.000000
  0.500000 -0.200000 -0.400000      2.000000
  0.200000  0.300000 -0.400000      2.000000
 -0.300000  0.500000 -0.400000      2.000000
  0.500000  0.200000 -0.400000      2.000000
  0.400000  0.200000  0.400000      2.000000
 -0.400000 -0.400000  0.400000      2.000000
  0.200000  0.400000  0.400000      2.000000
 -0.400000 -0.200000  0.400000      2.000000
  0.400000  0.400000  0.400000      2.000000
 -0.200000 -0.400000  0.400000      2.000000
  0.300000  0.300000  0.400000      2.000000
 -0.400000 -0.300000  0.400000      2.000000
  0.300000  0.400000  0.400000      2.000000
 -0.300000 -0.300000  0.400000      2.000000
  0.400000  0.300000  0.400000      2.000000
 -0.300000 -0.400000  0.400000      2.000000
 
 Following cartesian coordinates:
            Coordinates               Weight
  0.000000  0.000000  0.000000      1.000000
  0.022537  0.013012  0.000000      2.000000
  0.022537 -0.013012  0.000000      2.000000
  0.000000 -0.026023  0.000000      2.000000
  0.045073  0.026023  0.000000      2.000000
  0.045073 -0.026023  0.000000      2.000000
  0.000000 -0.052046  0.000000      2.000000
  0.067610  0.039035  0.000000      2.000000
  0.067610 -0.039035  0.000000      2.000000
  0.000000 -0.078070  0.000000      2.000000
  0.090147  0.052046  0.000000      2.000000
  0.090147 -0.052046  0.000000      2.000000
  0.000000 -0.104093  0.000000      2.000000
  0.112684  0.065058  0.000000      1.000000
  0.112684  0.195174  0.000000      1.000000
  0.000000  0.130116  0.000000      1.000000
  0.022537  0.039035  0.000000      2.000000
  0.045073  0.000000  0.000000      2.000000
  0.022537 -0.039035  0.000000      2.000000
  0.045073  0.052046  0.000000      2.000000
  0.067610 -0.013012  0.000000      2.000000
  0.022537 -0.065058  0.000000      2.000000
 -0.022537 -0.065058  0.000000      2.000000
  0.045073 -0.052046  0.000000      2.000000
  0.067610  0.013012  0.000000      2.000000
  0.067610  0.065058  0.000000      2.000000
  0.090147 -0.026023  0.000000      2.000000
  0.022537 -0.091081  0.000000      2.000000
 -0.022537 -0.091081  0.000000      2.000000
  0.067610 -0.065058  0.000000      2.000000
  0.090147  0.026023  0.000000      2.000000
  0.090147  0.078070  0.000000      2.000000
  0.112684 -0.039035  0.000000      2.000000
  0.022537  0.143127  0.000000      2.000000
 -0.022537 -0.117104  0.000000      2.000000
  0.090147  0.182162  0.000000      2.000000
  0.112684  0.039035  0.000000      2.000000
  0.045073  0.078070  0.000000      2.000000
  0.090147  0.000000  0.000000      2.000000
  0.045073 -0.078070  0.000000      2.000000
  0.067610  0.091081  0.000000      2.000000
  0.112684 -0.013012  0.000000      2.000000
  0.045073  0.156139  0.000000      2.000000
 -0.045073 -0.104093  0.000000      2.000000
  0.067610  0.169151  0.000000      2.000000
  0.112684  0.013012  0.000000      2.000000
  0.090147  0.104093  0.000000      2.000000
 -0.090147 -0.156139  0.000000      2.000000
  0.045073  0.130116  0.000000      2.000000
  0.067610  0.117104  0.000000      2.000000
 -0.090147 -0.130116  0.000000      2.000000
  0.067610  0.143127  0.000000      2.000000
  0.000000  0.000000  0.026264      2.000000
  0.022537  0.013012  0.026264      2.000000
  0.022537 -0.013012  0.026264      2.000000
  0.000000 -0.026023  0.026264      2.000000
 -0.022537 -0.013012  0.026264      2.000000
 -0.022537  0.013012  0.026264      2.000000
  0.000000  0.026023  0.026264      2.000000
  0.045073  0.026023  0.026264      2.000000
  0.045073 -0.026023  0.026264      2.000000
  0.000000 -0.052046  0.026264      2.000000
 -0.045073 -0.026023  0.026264      2.000000
 -0.045073  0.026023  0.026264      2.000000
  0.000000  0.052046  0.026264      2.000000
  0.067610  0.039035  0.026264      2.000000
  0.067610 -0.039035  0.026264      2.000000
  0.000000 -0.078070  0.026264      2.000000
 -0.067610 -0.039035  0.026264      2.000000
 -0.067610  0.039035  0.026264      2.000000
  0.000000  0.078070  0.026264      2.000000
  0.090147  0.052046  0.026264      2.000000
  0.090147 -0.052046  0.026264      2.000000
  0.000000 -0.104093  0.026264      2.000000
 -0.090147 -0.052046  0.026264      2.000000
 -0.090147  0.052046  0.026264      2.000000
  0.000000  0.104093  0.026264      2.000000
  0.112684  0.065058  0.026264      2.000000
  0.112684  0.195174  0.026264      2.000000
  0.000000  0.130116  0.026264      2.000000
  0.022537  0.039035  0.026264      2.000000
  0.045073  0.000000  0.026264      2.000000
  0.022537 -0.039035  0.026264      2.000000
 -0.022537 -0.039035  0.026264      2.000000
 -0.045073 -0.000000  0.026264      2.000000
 -0.022537  0.039035  0.026264      2.000000
  0.045073  0.052046  0.026264      2.000000
  0.067610 -0.013012  0.026264      2.000000
  0.022537 -0.065058  0.026264      2.000000
 -0.045073 -0.052046  0.026264      2.000000
 -0.067610  0.013012  0.026264      2.000000
 -0.022537  0.065058  0.026264      2.000000
 -0.022537 -0.065058 -0.026264      2.000000
  0.045073 -0.052046 -0.026264      2.000000
  0.067610  0.013012 -0.026264      2.000000
  0.022537  0.065058 -0.026264      2.000000
 -0.045073  0.052046 -0.026264      2.000000
 -0.067610 -0.013012 -0.026264      2.000000
  0.067610  0.065058  0.026264      2.000000
  0.090147 -0.026023  0.026264      2.000000
  0.022537 -0.091081  0.026264      2.000000
 -0.067610 -0.065058  0.026264      2.000000
 -0.090147  0.026023  0.026264      2.000000
 -0.022537  0.091081  0.026264      2.000000
 -0.022537 -0.091081 -0.026264      2.000000
  0.067610 -0.065058 -0.026264      2.000000
  0.090147  0.026023 -0.026264      2.000000
  0.022537  0.091081 -0.026264      2.000000
 -0.067610  0.065058 -0.026264      2.000000
 -0.090147 -0.026023 -0.026264      2.000000
  0.090147  0.078070  0.026264      2.000000
  0.112684 -0.039035  0.026264      2.000000
  0.022537  0.143127  0.026264      2.000000
 -0.090147 -0.078070  0.026264      2.000000
  0.112684  0.169151  0.026264      2.000000
 -0.022537  0.117104  0.026264      2.000000
 -0.022537 -0.117104 -0.026264      2.000000
  0.090147  0.182162 -0.026264      2.000000
  0.112684  0.039035 -0.026264      2.000000
  0.022537  0.117104 -0.026264      2.000000
 -0.090147  0.078070 -0.026264      2.000000
  0.112684  0.091081 -0.026264      2.000000
  0.045073  0.078070  0.026264      2.000000
  0.090147  0.000000  0.026264      2.000000
  0.045073 -0.078070  0.026264      2.000000
 -0.045073 -0.078070  0.026264      2.000000
 -0.090147 -0.000000  0.026264      2.000000
 -0.045073  0.078070  0.026264      2.000000
  0.067610  0.091081  0.026264      2.000000
  0.112684 -0.013012  0.026264      2.000000
  0.045073  0.156139  0.026264      2.000000
 -0.067610 -0.091081  0.026264      2.000000
  0.112684  0.143127  0.026264      2.000000
 -0.045073  0.104093  0.026264      2.000000
 -0.045073 -0.104093 -0.026264      2.000000
  0.067610  0.169151 -0.026264      2.000000
  0.112684  0.013012 -0.026264      2.000000
  0.045073  0.104093 -0.026264      2.000000
 -0.067610  0.091081 -0.026264      2.000000
  0.112684  0.117104 -0.026264      2.000000
  0.090147  0.104093  0.026264      2.000000
 -0.090147 -0.156139  0.026264      2.000000
  0.045073  0.130116  0.026264      2.000000
 -0.090147 -0.104093  0.026264      2.000000
  0.090147  0.156139  0.026264      2.000000
 -0.045073 -0.130116  0.026264      2.000000
  0.067610  0.117104  0.026264      2.000000
 -0.090147 -0.130116  0.026264      2.000000
  0.067610  0.143127  0.026264      2.000000
 -0.067610 -0.117104  0.026264      2.000000
  0.090147  0.130116  0.026264      2.000000
 -0.067610 -0.143127  0.026264      2.000000
  0.000000  0.000000  0.052529      2.000000
  0.022537  0.013012  0.052529      2.000000
  0.022537 -0.013012  0.052529      2.000000
  0.000000 -0.026023  0.052529      2.000000
 -0.022537 -0.013012  0.052529      2.000000
 -0.022537  0.013012  0.052529      2.000000
  0.000000  0.026023  0.052529      2.000000
  0.045073  0.026023  0.052529      2.000000
  0.045073 -0.026023  0.052529      2.000000
  0.000000 -0.052046  0.052529      2.000000
 -0.045073 -0.026023  0.052529      2.000000
 -0.045073  0.026023  0.052529      2.000000
  0.000000  0.052046  0.052529      2.000000
  0.067610  0.039035  0.052529      2.000000
  0.067610 -0.039035  0.052529      2.000000
  0.000000 -0.078070  0.052529      2.000000
 -0.067610 -0.039035  0.052529      2.000000
 -0.067610  0.039035  0.052529      2.000000
  0.000000  0.078070  0.052529      2.000000
  0.090147  0.052046  0.052529      2.000000
  0.090147 -0.052046  0.052529      2.000000
  0.000000 -0.104093  0.052529      2.000000
 -0.090147 -0.052046  0.052529      2.000000
 -0.090147  0.052046  0.052529      2.000000
  0.000000  0.104093  0.052529      2.000000
  0.112684  0.065058  0.052529      2.000000
  0.112684  0.195174  0.052529      2.000000
  0.000000  0.130116  0.052529      2.000000
  0.022537  0.039035  0.052529      2.000000
  0.045073  0.000000  0.052529      2.000000
  0.022537 -0.039035  0.052529      2.000000
 -0.022537 -0.039035  0.052529      2.000000
 -0.045073 -0.000000  0.052529      2.000000
 -0.022537  0.039035  0.052529      2.000000
  0.045073  0.052046  0.052529      2.000000
  0.067610 -0.013012  0.052529      2.000000
  0.022537 -0.065058  0.052529      2.000000
 -0.045073 -0.052046  0.052529      2.000000
 -0.067610  0.013012  0.052529      2.000000
 -0.022537  0.065058  0.052529      2.000000
 -0.022537 -0.065058 -0.052529      2.000000
  0.045073 -0.052046 -0.052529      2.000000
  0.067610  0.013012 -0.052529      2.000000
  0.022537  0.065058 -0.052529      2.000000
 -0.045073  0.052046 -0.052529      2.000000
 -0.067610 -0.013012 -0.052529      2.000000
  0.067610  0.065058  0.052529      2.000000
  0.090147 -0.026023  0.052529      2.000000
  0.022537 -0.091081  0.052529      2.000000
 -0.067610 -0.065058  0.052529      2.000000
 -0.090147  0.026023  0.052529      2.000000
 -0.022537  0.091081  0.052529      2.000000
 -0.022537 -0.091081 -0.052529      2.000000
  0.067610 -0.065058 -0.052529      2.000000
  0.090147  0.026023 -0.052529      2.000000
  0.022537  0.091081 -0.052529      2.000000
 -0.067610  0.065058 -0.052529      2.000000
 -0.090147 -0.026023 -0.052529      2.000000
  0.090147  0.078070  0.052529      2.000000
  0.112684 -0.039035  0.052529      2.000000
  0.022537  0.143127  0.052529      2.000000
 -0.090147 -0.078070  0.052529      2.000000
  0.112684  0.169151  0.052529      2.000000
 -0.022537  0.117104  0.052529      2.000000
 -0.022537 -0.117104 -0.052529      2.000000
  0.090147  0.182162 -0.052529      2.000000
  0.112684  0.039035 -0.052529      2.000000
  0.022537  0.117104 -0.052529      2.000000
 -0.090147  0.078070 -0.052529      2.000000
  0.112684  0.091081 -0.052529      2.000000
  0.045073  0.078070  0.052529      2.000000
  0.090147  0.000000  0.052529      2.000000
  0.045073 -0.078070  0.052529      2.000000
 -0.045073 -0.078070  0.052529      2.000000
 -0.090147 -0.000000  0.052529      2.000000
 -0.045073  0.078070  0.052529      2.000000
  0.067610  0.091081  0.052529      2.000000
  0.112684 -0.013012  0.052529      2.000000
  0.045073  0.156139  0.052529      2.000000
 -0.067610 -0.091081  0.052529      2.000000
  0.112684  0.143127  0.052529      2.000000
 -0.045073  0.104093  0.052529      2.000000
 -0.045073 -0.104093 -0.052529      2.000000
  0.067610  0.169151 -0.052529      2.000000
  0.112684  0.013012 -0.052529      2.000000
  0.045073  0.104093 -0.052529      2.000000
 -0.067610  0.091081 -0.052529      2.000000
  0.112684  0.117104 -0.052529      2.000000
  0.090147  0.104093  0.052529      2.000000
 -0.090147 -0.156139  0.052529      2.000000
  0.045073  0.130116  0.052529      2.000000
 -0.090147 -0.104093  0.052529      2.000000
  0.090147  0.156139  0.052529      2.000000
 -0.045073 -0.130116  0.052529      2.000000
  0.067610  0.117104  0.052529      2.000000
 -0.090147 -0.130116  0.052529      2.000000
  0.067610  0.143127  0.052529      2.000000
 -0.067610 -0.117104  0.052529      2.000000
  0.090147  0.130116  0.052529      2.000000
 -0.067610 -0.143127  0.052529      2.000000
 
 
 Subroutine IBZKPT_HF returns following result:
 ==============================================
 
 Found    500 k-points in 1st BZ
 the following    500 k-points will be used (e.g. in the exchange kernel)
 Following reciprocal coordinates:   # in IRBZ
  0.000000  0.000000  0.000000    0.00200000   1 t-inv F
  0.100000  0.000000  0.000000    0.00200000   2 t-inv F
  0.100000 -0.100000  0.000000    0.00200000   3 t-inv F
  0.000000 -0.100000  0.000000    0.00200000   4 t-inv F
  0.200000  0.000000  0.000000    0.00200000   5 t-inv F
  0.200000 -0.200000  0.000000    0.00200000   6 t-inv F
  0.000000 -0.200000  0.000000    0.00200000   7 t-inv F
  0.300000  0.000000  0.000000    0.00200000   8 t-inv F
  0.300000 -0.300000  0.000000    0.00200000   9 t-inv F
  0.000000 -0.300000  0.000000    0.00200000  10 t-inv F
  0.400000  0.000000  0.000000    0.00200000  11 t-inv F
  0.400000 -0.400000  0.000000    0.00200000  12 t-inv F
  0.000000 -0.400000  0.000000    0.00200000  13 t-inv F
  0.500000  0.000000  0.000000    0.00200000  14 t-inv F
  0.500000  0.500000  0.000000    0.00200000  15 t-inv F
  0.000000  0.500000  0.000000    0.00200000  16 t-inv F
  0.100000  0.100000  0.000000    0.00200000  17 t-inv F
  0.200000 -0.100000  0.000000    0.00200000  18 t-inv F
  0.100000 -0.200000  0.000000    0.00200000  19 t-inv F
  0.200000  0.100000  0.000000    0.00200000  20 t-inv F
  0.300000 -0.200000  0.000000    0.00200000  21 t-inv F
  0.100000 -0.300000  0.000000    0.00200000  22 t-inv F
 -0.100000 -0.200000  0.000000    0.00200000  23 t-inv F
  0.200000 -0.300000  0.000000    0.00200000  24 t-inv F
  0.300000 -0.100000  0.000000    0.00200000  25 t-inv F
  0.300000  0.100000  0.000000    0.00200000  26 t-inv F
  0.400000 -0.300000  0.000000    0.00200000  27 t-inv F
  0.100000 -0.400000  0.000000    0.00200000  28 t-inv F
 -0.100000 -0.300000  0.000000    0.00200000  29 t-inv F
  0.300000 -0.400000  0.000000    0.00200000  30 t-inv F
  0.400000 -0.100000  0.000000    0.00200000  31 t-inv F
  0.400000  0.100000  0.000000    0.00200000  32 t-inv F
  0.500000 -0.400000  0.000000    0.00200000  33 t-inv F
  0.100000  0.500000  0.000000    0.00200000  34 t-inv F
 -0.100000 -0.400000  0.000000    0.00200000  35 t-inv F
  0.400000  0.500000  0.000000    0.00200000  36 t-inv F
  0.500000 -0.100000  0.000000    0.00200000  37 t-inv F
  0.200000  0.200000  0.000000    0.00200000  38 t-inv F
  0.400000 -0.200000  0.000000    0.00200000  39 t-inv F
  0.200000 -0.400000  0.000000    0.00200000  40 t-inv F
  0.300000  0.200000  0.000000    0.00200000  41 t-inv F
  0.500000 -0.300000  0.000000    0.00200000  42 t-inv F
  0.200000  0.500000  0.000000    0.00200000  43 t-inv F
 -0.200000 -0.300000  0.000000    0.00200000  44 t-inv F
  0.300000  0.500000  0.000000    0.00200000  45 t-inv F
  0.500000 -0.200000  0.000000    0.00200000  46 t-inv F
  0.400000  0.200000  0.000000    0.00200000  47 t-inv F
 -0.400000 -0.400000  0.000000    0.00200000  48 t-inv F
  0.200000  0.400000  0.000000    0.00200000  49 t-inv F
  0.300000  0.300000  0.000000    0.00200000  50 t-inv F
 -0.400000 -0.300000  0.000000    0.00200000  51 t-inv F
  0.300000  0.400000  0.000000    0.00200000  52 t-inv F
  0.000000  0.000000  0.200000    0.00200000  53 t-inv F
  0.100000  0.000000  0.200000    0.00200000  54 t-inv F
  0.100000 -0.100000  0.200000    0.00200000  55 t-inv F
  0.000000 -0.100000  0.200000    0.00200000  56 t-inv F
 -0.100000  0.000000  0.200000    0.00200000  57 t-inv F
 -0.100000  0.100000  0.200000    0.00200000  58 t-inv F
  0.000000  0.100000  0.200000    0.00200000  59 t-inv F
  0.200000  0.000000  0.200000    0.00200000  60 t-inv F
  0.200000 -0.200000  0.200000    0.00200000  61 t-inv F
  0.000000 -0.200000  0.200000    0.00200000  62 t-inv F
 -0.200000  0.000000  0.200000    0.00200000  63 t-inv F
 -0.200000  0.200000  0.200000    0.00200000  64 t-inv F
  0.000000  0.200000  0.200000    0.00200000  65 t-inv F
  0.300000  0.000000  0.200000    0.00200000  66 t-inv F
  0.300000 -0.300000  0.200000    0.00200000  67 t-inv F
  0.000000 -0.300000  0.200000    0.00200000  68 t-inv F
 -0.300000  0.000000  0.200000    0.00200000  69 t-inv F
 -0.300000  0.300000  0.200000    0.00200000  70 t-inv F
  0.000000  0.300000  0.200000    0.00200000  71 t-inv F
  0.400000  0.000000  0.200000    0.00200000  72 t-inv F
  0.400000 -0.400000  0.200000    0.00200000  73 t-inv F
  0.000000 -0.400000  0.200000    0.00200000  74 t-inv F
 -0.400000  0.000000  0.200000    0.00200000  75 t-inv F
 -0.400000  0.400000  0.200000    0.00200000  76 t-inv F
  0.000000  0.400000  0.200000    0.00200000  77 t-inv F
  0.500000  0.000000  0.200000    0.00200000  78 t-inv F
  0.500000  0.500000  0.200000    0.00200000  79 t-inv F
  0.000000  0.500000  0.200000    0.00200000  80 t-inv F
  0.100000  0.100000  0.200000    0.00200000  81 t-inv F
  0.200000 -0.100000  0.200000    0.00200000  82 t-inv F
  0.100000 -0.200000  0.200000    0.00200000  83 t-inv F
 -0.100000 -0.100000  0.200000    0.00200000  84 t-inv F
 -0.200000  0.100000  0.200000    0.00200000  85 t-inv F
 -0.100000  0.200000  0.200000    0.00200000  86 t-inv F
  0.200000  0.100000  0.200000    0.00200000  87 t-inv F
  0.300000 -0.200000  0.200000    0.00200000  88 t-inv F
  0.100000 -0.300000  0.200000    0.00200000  89 t-inv F
 -0.200000 -0.100000  0.200000    0.00200000  90 t-inv F
 -0.300000  0.200000  0.200000    0.00200000  91 t-inv F
 -0.100000  0.300000  0.200000    0.00200000  92 t-inv F
 -0.100000 -0.200000 -0.200000    0.00200000  93 t-inv F
  0.200000 -0.300000 -0.200000    0.00200000  94 t-inv F
  0.300000 -0.100000 -0.200000    0.00200000  95 t-inv F
  0.100000  0.200000 -0.200000    0.00200000  96 t-inv F
 -0.200000  0.300000 -0.200000    0.00200000  97 t-inv F
 -0.300000  0.100000 -0.200000    0.00200000  98 t-inv F
  0.300000  0.100000  0.200000    0.00200000  99 t-inv F
  0.400000 -0.300000  0.200000    0.00200000 100 t-inv F
  0.100000 -0.400000  0.200000    0.00200000 101 t-inv F
 -0.300000 -0.100000  0.200000    0.00200000 102 t-inv F
 -0.400000  0.300000  0.200000    0.00200000 103 t-inv F
 -0.100000  0.400000  0.200000    0.00200000 104 t-inv F
 -0.100000 -0.300000 -0.200000    0.00200000 105 t-inv F
  0.300000 -0.400000 -0.200000    0.00200000 106 t-inv F
  0.400000 -0.100000 -0.200000    0.00200000 107 t-inv F
  0.100000  0.300000 -0.200000    0.00200000 108 t-inv F
 -0.300000  0.400000 -0.200000    0.00200000 109 t-inv F
 -0.400000  0.100000 -0.200000    0.00200000 110 t-inv F
  0.400000  0.100000  0.200000    0.00200000 111 t-inv F
  0.500000 -0.400000  0.200000    0.00200000 112 t-inv F
  0.100000  0.500000  0.200000    0.00200000 113 t-inv F
 -0.400000 -0.100000  0.200000    0.00200000 114 t-inv F
  0.500000  0.400000  0.200000    0.00200000 115 t-inv F
 -0.100000  0.500000  0.200000    0.00200000 116 t-inv F
 -0.100000 -0.400000 -0.200000    0.00200000 117 t-inv F
  0.400000  0.500000 -0.200000    0.00200000 118 t-inv F
  0.500000 -0.100000 -0.200000    0.00200000 119 t-inv F
  0.100000  0.400000 -0.200000    0.00200000 120 t-inv F
 -0.400000  0.500000 -0.200000    0.00200000 121 t-inv F
  0.500000  0.100000 -0.200000    0.00200000 122 t-inv F
  0.200000  0.200000  0.200000    0.00200000 123 t-inv F
  0.400000 -0.200000  0.200000    0.00200000 124 t-inv F
  0.200000 -0.400000  0.200000    0.00200000 125 t-inv F
 -0.200000 -0.200000  0.200000    0.00200000 126 t-inv F
 -0.400000  0.200000  0.200000    0.00200000 127 t-inv F
 -0.200000  0.400000  0.200000    0.00200000 128 t-inv F
  0.300000  0.200000  0.200000    0.00200000 129 t-inv F
  0.500000 -0.300000  0.200000    0.00200000 130 t-inv F
  0.200000  0.500000  0.200000    0.00200000 131 t-inv F
 -0.300000 -0.200000  0.200000    0.00200000 132 t-inv F
  0.500000  0.300000  0.200000    0.00200000 133 t-inv F
 -0.200000  0.500000  0.200000    0.00200000 134 t-inv F
 -0.200000 -0.300000 -0.200000    0.00200000 135 t-inv F
  0.300000  0.500000 -0.200000    0.00200000 136 t-inv F
  0.500000 -0.200000 -0.200000    0.00200000 137 t-inv F
  0.200000  0.300000 -0.200000    0.00200000 138 t-inv F
 -0.300000  0.500000 -0.200000    0.00200000 139 t-inv F
  0.500000  0.200000 -0.200000    0.00200000 140 t-inv F
  0.400000  0.200000  0.200000    0.00200000 141 t-inv F
 -0.400000 -0.400000  0.200000    0.00200000 142 t-inv F
  0.200000  0.400000  0.200000    0.00200000 143 t-inv F
 -0.400000 -0.200000  0.200000    0.00200000 144 t-inv F
  0.400000  0.400000  0.200000    0.00200000 145 t-inv F
 -0.200000 -0.400000  0.200000    0.00200000 146 t-inv F
  0.300000  0.300000  0.200000    0.00200000 147 t-inv F
 -0.400000 -0.300000  0.200000    0.00200000 148 t-inv F
  0.300000  0.400000  0.200000    0.00200000 149 t-inv F
 -0.300000 -0.300000  0.200000    0.00200000 150 t-inv F
  0.400000  0.300000  0.200000    0.00200000 151 t-inv F
 -0.300000 -0.400000  0.200000    0.00200000 152 t-inv F
  0.000000  0.000000  0.400000    0.00200000 153 t-inv F
  0.100000  0.000000  0.400000    0.00200000 154 t-inv F
  0.100000 -0.100000  0.400000    0.00200000 155 t-inv F
  0.000000 -0.100000  0.400000    0.00200000 156 t-inv F
 -0.100000  0.000000  0.400000    0.00200000 157 t-inv F
 -0.100000  0.100000  0.400000    0.00200000 158 t-inv F
  0.000000  0.100000  0.400000    0.00200000 159 t-inv F
  0.200000  0.000000  0.400000    0.00200000 160 t-inv F
  0.200000 -0.200000  0.400000    0.00200000 161 t-inv F
  0.000000 -0.200000  0.400000    0.00200000 162 t-inv F
 -0.200000  0.000000  0.400000    0.00200000 163 t-inv F
 -0.200000  0.200000  0.400000    0.00200000 164 t-inv F
  0.000000  0.200000  0.400000    0.00200000 165 t-inv F
  0.300000  0.000000  0.400000    0.00200000 166 t-inv F
  0.300000 -0.300000  0.400000    0.00200000 167 t-inv F
  0.000000 -0.300000  0.400000    0.00200000 168 t-inv F
 -0.300000  0.000000  0.400000    0.00200000 169 t-inv F
 -0.300000  0.300000  0.400000    0.00200000 170 t-inv F
  0.000000  0.300000  0.400000    0.00200000 171 t-inv F
  0.400000  0.000000  0.400000    0.00200000 172 t-inv F
  0.400000 -0.400000  0.400000    0.00200000 173 t-inv F
  0.000000 -0.400000  0.400000    0.00200000 174 t-inv F
 -0.400000  0.000000  0.400000    0.00200000 175 t-inv F
 -0.400000  0.400000  0.400000    0.00200000 176 t-inv F
  0.000000  0.400000  0.400000    0.00200000 177 t-inv F
  0.500000  0.000000  0.400000    0.00200000 178 t-inv F
  0.500000  0.500000  0.400000    0.00200000 179 t-inv F
  0.000000  0.500000  0.400000    0.00200000 180 t-inv F
  0.100000  0.100000  0.400000    0.00200000 181 t-inv F
  0.200000 -0.100000  0.400000    0.00200000 182 t-inv F
  0.100000 -0.200000  0.400000    0.00200000 183 t-inv F
 -0.100000 -0.100000  0.400000    0.00200000 184 t-inv F
 -0.200000  0.100000  0.400000    0.00200000 185 t-inv F
 -0.100000  0.200000  0.400000    0.00200000 186 t-inv F
  0.200000  0.100000  0.400000    0.00200000 187 t-inv F
  0.300000 -0.200000  0.400000    0.00200000 188 t-inv F
  0.100000 -0.300000  0.400000    0.00200000 189 t-inv F
 -0.200000 -0.100000  0.400000    0.00200000 190 t-inv F
 -0.300000  0.200000  0.400000    0.00200000 191 t-inv F
 -0.100000  0.300000  0.400000    0.00200000 192 t-inv F
 -0.100000 -0.200000 -0.400000    0.00200000 193 t-inv F
  0.200000 -0.300000 -0.400000    0.00200000 194 t-inv F
  0.300000 -0.100000 -0.400000    0.00200000 195 t-inv F
  0.100000  0.200000 -0.400000    0.00200000 196 t-inv F
 -0.200000  0.300000 -0.400000    0.00200000 197 t-inv F
 -0.300000  0.100000 -0.400000    0.00200000 198 t-inv F
  0.300000  0.100000  0.400000    0.00200000 199 t-inv F
  0.400000 -0.300000  0.400000    0.00200000 200 t-inv F
  0.100000 -0.400000  0.400000    0.00200000 201 t-inv F
 -0.300000 -0.100000  0.400000    0.00200000 202 t-inv F
 -0.400000  0.300000  0.400000    0.00200000 203 t-inv F
 -0.100000  0.400000  0.400000    0.00200000 204 t-inv F
 -0.100000 -0.300000 -0.400000    0.00200000 205 t-inv F
  0.300000 -0.400000 -0.400000    0.00200000 206 t-inv F
  0.400000 -0.100000 -0.400000    0.00200000 207 t-inv F
  0.100000  0.300000 -0.400000    0.00200000 208 t-inv F
 -0.300000  0.400000 -0.400000    0.00200000 209 t-inv F
 -0.400000  0.100000 -0.400000    0.00200000 210 t-inv F
  0.400000  0.100000  0.400000    0.00200000 211 t-inv F
  0.500000 -0.400000  0.400000    0.00200000 212 t-inv F
  0.100000  0.500000  0.400000    0.00200000 213 t-inv F
 -0.400000 -0.100000  0.400000    0.00200000 214 t-inv F
  0.500000  0.400000  0.400000    0.00200000 215 t-inv F
 -0.100000  0.500000  0.400000    0.00200000 216 t-inv F
 -0.100000 -0.400000 -0.400000    0.00200000 217 t-inv F
  0.400000  0.500000 -0.400000    0.00200000 218 t-inv F
  0.500000 -0.100000 -0.400000    0.00200000 219 t-inv F
  0.100000  0.400000 -0.400000    0.00200000 220 t-inv F
 -0.400000  0.500000 -0.400000    0.00200000 221 t-inv F
  0.500000  0.100000 -0.400000    0.00200000 222 t-inv F
  0.200000  0.200000  0.400000    0.00200000 223 t-inv F
  0.400000 -0.200000  0.400000    0.00200000 224 t-inv F
  0.200000 -0.400000  0.400000    0.00200000 225 t-inv F
 -0.200000 -0.200000  0.400000    0.00200000 226 t-inv F
 -0.400000  0.200000  0.400000    0.00200000 227 t-inv F
 -0.200000  0.400000  0.400000    0.00200000 228 t-inv F
  0.300000  0.200000  0.400000    0.00200000 229 t-inv F
  0.500000 -0.300000  0.400000    0.00200000 230 t-inv F
  0.200000  0.500000  0.400000    0.00200000 231 t-inv F
 -0.300000 -0.200000  0.400000    0.00200000 232 t-inv F
  0.500000  0.300000  0.400000    0.00200000 233 t-inv F
 -0.200000  0.500000  0.400000    0.00200000 234 t-inv F
 -0.200000 -0.300000 -0.400000    0.00200000 235 t-inv F
  0.300000  0.500000 -0.400000    0.00200000 236 t-inv F
  0.500000 -0.200000 -0.400000    0.00200000 237 t-inv F
  0.200000  0.300000 -0.400000    0.00200000 238 t-inv F
 -0.300000  0.500000 -0.400000    0.00200000 239 t-inv F
  0.500000  0.200000 -0.400000    0.00200000 240 t-inv F
  0.400000  0.200000  0.400000    0.00200000 241 t-inv F
 -0.400000 -0.400000  0.400000    0.00200000 242 t-inv F
  0.200000  0.400000  0.400000    0.00200000 243 t-inv F
 -0.400000 -0.200000  0.400000    0.00200000 244 t-inv F
  0.400000  0.400000  0.400000    0.00200000 245 t-inv F
 -0.200000 -0.400000  0.400000    0.00200000 246 t-inv F
  0.300000  0.300000  0.400000    0.00200000 247 t-inv F
 -0.400000 -0.300000  0.400000    0.00200000 248 t-inv F
  0.300000  0.400000  0.400000    0.00200000 249 t-inv F
 -0.300000 -0.300000  0.400000    0.00200000 250 t-inv F
  0.400000  0.300000  0.400000    0.00200000 251 t-inv F
 -0.300000 -0.400000  0.400000    0.00200000 252 t-inv F
 -0.100000 -0.000000 -0.000000    0.00200000   2 t-inv T
 -0.100000  0.100000 -0.000000    0.00200000   3 t-inv T
 -0.000000  0.100000 -0.000000    0.00200000   4 t-inv T
 -0.200000 -0.000000 -0.000000    0.00200000   5 t-inv T
 -0.200000  0.200000 -0.000000    0.00200000   6 t-inv T
 -0.000000  0.200000 -0.000000    0.00200000   7 t-inv T
 -0.300000 -0.000000 -0.000000    0.00200000   8 t-inv T
 -0.300000  0.300000 -0.000000    0.00200000   9 t-inv T
 -0.000000  0.300000 -0.000000    0.00200000  10 t-inv T
 -0.400000 -0.000000 -0.000000    0.00200000  11 t-inv T
 -0.400000  0.400000 -0.000000    0.00200000  12 t-inv T
 -0.000000  0.400000 -0.000000    0.00200000  13 t-inv T
 -0.100000 -0.100000 -0.000000    0.00200000  17 t-inv T
 -0.200000  0.100000 -0.000000    0.00200000  18 t-inv T
 -0.100000  0.200000 -0.000000    0.00200000  19 t-inv T
 -0.200000 -0.100000 -0.000000    0.00200000  20 t-inv T
 -0.300000  0.200000 -0.000000    0.00200000  21 t-inv T
 -0.100000  0.300000 -0.000000    0.00200000  22 t-inv T
  0.100000  0.200000 -0.000000    0.00200000  23 t-inv T
 -0.200000  0.300000 -0.000000    0.00200000  24 t-inv T
 -0.300000  0.100000 -0.000000    0.00200000  25 t-inv T
 -0.300000 -0.100000 -0.000000    0.00200000  26 t-inv T
 -0.400000  0.300000 -0.000000    0.00200000  27 t-inv T
 -0.100000  0.400000 -0.000000    0.00200000  28 t-inv T
  0.100000  0.300000 -0.000000    0.00200000  29 t-inv T
 -0.300000  0.400000 -0.000000    0.00200000  30 t-inv T
 -0.400000  0.100000 -0.000000    0.00200000  31 t-inv T
 -0.400000 -0.100000 -0.000000    0.00200000  32 t-inv T
 -0.500000  0.400000 -0.000000    0.00200000  33 t-inv T
 -0.100000 -0.500000 -0.000000    0.00200000  34 t-inv T
  0.100000  0.400000 -0.000000    0.00200000  35 t-inv T
 -0.400000 -0.500000 -0.000000    0.00200000  36 t-inv T
 -0.500000  0.100000 -0.000000    0.00200000  37 t-inv T
 -0.200000 -0.200000 -0.000000    0.00200000  38 t-inv T
 -0.400000  0.200000 -0.000000    0.00200000  39 t-inv T
 -0.200000  0.400000 -0.000000    0.00200000  40 t-inv T
 -0.300000 -0.200000 -0.000000    0.00200000  41 t-inv T
 -0.500000  0.300000 -0.000000    0.00200000  42 t-inv T
 -0.200000 -0.500000 -0.000000    0.00200000  43 t-inv T
  0.200000  0.300000 -0.000000    0.00200000  44 t-inv T
 -0.300000 -0.500000 -0.000000    0.00200000  45 t-inv T
 -0.500000  0.200000 -0.000000    0.00200000  46 t-inv T
 -0.400000 -0.200000 -0.000000    0.00200000  47 t-inv T
  0.400000  0.400000 -0.000000    0.00200000  48 t-inv T
 -0.200000 -0.400000 -0.000000    0.00200000  49 t-inv T
 -0.300000 -0.300000 -0.000000    0.00200000  50 t-inv T
  0.400000  0.300000 -0.000000    0.00200000  51 t-inv T
 -0.300000 -0.400000 -0.000000    0.00200000  52 t-inv T
 -0.000000 -0.000000 -0.200000    0.00200000  53 t-inv T
 -0.100000 -0.000000 -0.200000    0.00200000  54 t-inv T
 -0.100000  0.100000 -0.200000    0.00200000  55 t-inv T
 -0.000000  0.100000 -0.200000    0.00200000  56 t-inv T
  0.100000 -0.000000 -0.200000    0.00200000  57 t-inv T
  0.100000 -0.100000 -0.200000    0.00200000  58 t-inv T
 -0.000000 -0.100000 -0.200000    0.00200000  59 t-inv T
 -0.200000 -0.000000 -0.200000    0.00200000  60 t-inv T
 -0.200000  0.200000 -0.200000    0.00200000  61 t-inv T
 -0.000000  0.200000 -0.200000    0.00200000  62 t-inv T
  0.200000 -0.000000 -0.200000    0.00200000  63 t-inv T
  0.200000 -0.200000 -0.200000    0.00200000  64 t-inv T
 -0.000000 -0.200000 -0.200000    0.00200000  65 t-inv T
 -0.300000 -0.000000 -0.200000    0.00200000  66 t-inv T
 -0.300000  0.300000 -0.200000    0.00200000  67 t-inv T
 -0.000000  0.300000 -0.200000    0.00200000  68 t-inv T
  0.300000 -0.000000 -0.200000    0.00200000  69 t-inv T
  0.300000 -0.300000 -0.200000    0.00200000  70 t-inv T
 -0.000000 -0.300000 -0.200000    0.00200000  71 t-inv T
 -0.400000 -0.000000 -0.200000    0.00200000  72 t-inv T
 -0.400000  0.400000 -0.200000    0.00200000  73 t-inv T
 -0.000000  0.400000 -0.200000    0.00200000  74 t-inv T
  0.400000 -0.000000 -0.200000    0.00200000  75 t-inv T
  0.400000 -0.400000 -0.200000    0.00200000  76 t-inv T
 -0.000000 -0.400000 -0.200000    0.00200000  77 t-inv T
 -0.500000 -0.000000 -0.200000    0.00200000  78 t-inv T
 -0.500000 -0.500000 -0.200000    0.00200000  79 t-inv T
 -0.000000 -0.500000 -0.200000    0.00200000  80 t-inv T
 -0.100000 -0.100000 -0.200000    0.00200000  81 t-inv T
 -0.200000  0.100000 -0.200000    0.00200000  82 t-inv T
 -0.100000  0.200000 -0.200000    0.00200000  83 t-inv T
  0.100000  0.100000 -0.200000    0.00200000  84 t-inv T
  0.200000 -0.100000 -0.200000    0.00200000  85 t-inv T
  0.100000 -0.200000 -0.200000    0.00200000  86 t-inv T
 -0.200000 -0.100000 -0.200000    0.00200000  87 t-inv T
 -0.300000  0.200000 -0.200000    0.00200000  88 t-inv T
 -0.100000  0.300000 -0.200000    0.00200000  89 t-inv T
  0.200000  0.100000 -0.200000    0.00200000  90 t-inv T
  0.300000 -0.200000 -0.200000    0.00200000  91 t-inv T
  0.100000 -0.300000 -0.200000    0.00200000  92 t-inv T
  0.100000  0.200000  0.200000    0.00200000  93 t-inv T
 -0.200000  0.300000  0.200000    0.00200000  94 t-inv T
 -0.300000  0.100000  0.200000    0.00200000  95 t-inv T
 -0.100000 -0.200000  0.200000    0.00200000  96 t-inv T
  0.200000 -0.300000  0.200000    0.00200000  97 t-inv T
  0.300000 -0.100000  0.200000    0.00200000  98 t-inv T
 -0.300000 -0.100000 -0.200000    0.00200000  99 t-inv T
 -0.400000  0.300000 -0.200000    0.00200000 100 t-inv T
 -0.100000  0.400000 -0.200000    0.00200000 101 t-inv T
  0.300000  0.100000 -0.200000    0.00200000 102 t-inv T
  0.400000 -0.300000 -0.200000    0.00200000 103 t-inv T
  0.100000 -0.400000 -0.200000    0.00200000 104 t-inv T
  0.100000  0.300000  0.200000    0.00200000 105 t-inv T
 -0.300000  0.400000  0.200000    0.00200000 106 t-inv T
 -0.400000  0.100000  0.200000    0.00200000 107 t-inv T
 -0.100000 -0.300000  0.200000    0.00200000 108 t-inv T
  0.300000 -0.400000  0.200000    0.00200000 109 t-inv T
  0.400000 -0.100000  0.200000    0.00200000 110 t-inv T
 -0.400000 -0.100000 -0.200000    0.00200000 111 t-inv T
 -0.500000  0.400000 -0.200000    0.00200000 112 t-inv T
 -0.100000 -0.500000 -0.200000    0.00200000 113 t-inv T
  0.400000  0.100000 -0.200000    0.00200000 114 t-inv T
 -0.500000 -0.400000 -0.200000    0.00200000 115 t-inv T
  0.100000 -0.500000 -0.200000    0.00200000 116 t-inv T
  0.100000  0.400000  0.200000    0.00200000 117 t-inv T
 -0.400000 -0.500000  0.200000    0.00200000 118 t-inv T
 -0.500000  0.100000  0.200000    0.00200000 119 t-inv T
 -0.100000 -0.400000  0.200000    0.00200000 120 t-inv T
  0.400000 -0.500000  0.200000    0.00200000 121 t-inv T
 -0.500000 -0.100000  0.200000    0.00200000 122 t-inv T
 -0.200000 -0.200000 -0.200000    0.00200000 123 t-inv T
 -0.400000  0.200000 -0.200000    0.00200000 124 t-inv T
 -0.200000  0.400000 -0.200000    0.00200000 125 t-inv T
  0.200000  0.200000 -0.200000    0.00200000 126 t-inv T
  0.400000 -0.200000 -0.200000    0.00200000 127 t-inv T
  0.200000 -0.400000 -0.200000    0.00200000 128 t-inv T
 -0.300000 -0.200000 -0.200000    0.00200000 129 t-inv T
 -0.500000  0.300000 -0.200000    0.00200000 130 t-inv T
 -0.200000 -0.500000 -0.200000    0.00200000 131 t-inv T
  0.300000  0.200000 -0.200000    0.00200000 132 t-inv T
 -0.500000 -0.300000 -0.200000    0.00200000 133 t-inv T
  0.200000 -0.500000 -0.200000    0.00200000 134 t-inv T
  0.200000  0.300000  0.200000    0.00200000 135 t-inv T
 -0.300000 -0.500000  0.200000    0.00200000 136 t-inv T
 -0.500000  0.200000  0.200000    0.00200000 137 t-inv T
 -0.200000 -0.300000  0.200000    0.00200000 138 t-inv T
  0.300000 -0.500000  0.200000    0.00200000 139 t-inv T
 -0.500000 -0.200000  0.200000    0.00200000 140 t-inv T
 -0.400000 -0.200000 -0.200000    0.00200000 141 t-inv T
  0.400000  0.400000 -0.200000    0.00200000 142 t-inv T
 -0.200000 -0.400000 -0.200000    0.00200000 143 t-inv T
  0.400000  0.200000 -0.200000    0.00200000 144 t-inv T
 -0.400000 -0.400000 -0.200000    0.00200000 145 t-inv T
  0.200000  0.400000 -0.200000    0.00200000 146 t-inv T
 -0.300000 -0.300000 -0.200000    0.00200000 147 t-inv T
  0.400000  0.300000 -0.200000    0.00200000 148 t-inv T
 -0.300000 -0.400000 -0.200000    0.00200000 149 t-inv T
  0.300000  0.300000 -0.200000    0.00200000 150 t-inv T
 -0.400000 -0.300000 -0.200000    0.00200000 151 t-inv T
  0.300000  0.400000 -0.200000    0.00200000 152 t-inv T
 -0.000000 -0.000000 -0.400000    0.00200000 153 t-inv T
 -0.100000 -0.000000 -0.400000    0.00200000 154 t-inv T
 -0.100000  0.100000 -0.400000    0.00200000 155 t-inv T
 -0.000000  0.100000 -0.400000    0.00200000 156 t-inv T
  0.100000 -0.000000 -0.400000    0.00200000 157 t-inv T
  0.100000 -0.100000 -0.400000    0.00200000 158 t-inv T
 -0.000000 -0.100000 -0.400000    0.00200000 159 t-inv T
 -0.200000 -0.000000 -0.400000    0.00200000 160 t-inv T
 -0.200000  0.200000 -0.400000    0.00200000 161 t-inv T
 -0.000000  0.200000 -0.400000    0.00200000 162 t-inv T
  0.200000 -0.000000 -0.400000    0.00200000 163 t-inv T
  0.200000 -0.200000 -0.400000    0.00200000 164 t-inv T
 -0.000000 -0.200000 -0.400000    0.00200000 165 t-inv T
 -0.300000 -0.000000 -0.400000    0.00200000 166 t-inv T
 -0.300000  0.300000 -0.400000    0.00200000 167 t-inv T
 -0.000000  0.300000 -0.400000    0.00200000 168 t-inv T
  0.300000 -0.000000 -0.400000    0.00200000 169 t-inv T
  0.300000 -0.300000 -0.400000    0.00200000 170 t-inv T
 -0.000000 -0.300000 -0.400000    0.00200000 171 t-inv T
 -0.400000 -0.000000 -0.400000    0.00200000 172 t-inv T
 -0.400000  0.400000 -0.400000    0.00200000 173 t-inv T
 -0.000000  0.400000 -0.400000    0.00200000 174 t-inv T
  0.400000 -0.000000 -0.400000    0.00200000 175 t-inv T
  0.400000 -0.400000 -0.400000    0.00200000 176 t-inv T
 -0.000000 -0.400000 -0.400000    0.00200000 177 t-inv T
 -0.500000 -0.000000 -0.400000    0.00200000 178 t-inv T
 -0.500000 -0.500000 -0.400000    0.00200000 179 t-inv T
 -0.000000 -0.500000 -0.400000    0.00200000 180 t-inv T
 -0.100000 -0.100000 -0.400000    0.00200000 181 t-inv T
 -0.200000  0.100000 -0.400000    0.00200000 182 t-inv T
 -0.100000  0.200000 -0.400000    0.00200000 183 t-inv T
  0.100000  0.100000 -0.400000    0.00200000 184 t-inv T
  0.200000 -0.100000 -0.400000    0.00200000 185 t-inv T
  0.100000 -0.200000 -0.400000    0.00200000 186 t-inv T
 -0.200000 -0.100000 -0.400000    0.00200000 187 t-inv T
 -0.300000  0.200000 -0.400000    0.00200000 188 t-inv T
 -0.100000  0.300000 -0.400000    0.00200000 189 t-inv T
  0.200000  0.100000 -0.400000    0.00200000 190 t-inv T
  0.300000 -0.200000 -0.400000    0.00200000 191 t-inv T
  0.100000 -0.300000 -0.400000    0.00200000 192 t-inv T
  0.100000  0.200000  0.400000    0.00200000 193 t-inv T
 -0.200000  0.300000  0.400000    0.00200000 194 t-inv T
 -0.300000  0.100000  0.400000    0.00200000 195 t-inv T
 -0.100000 -0.200000  0.400000    0.00200000 196 t-inv T
  0.200000 -0.300000  0.400000    0.00200000 197 t-inv T
  0.300000 -0.100000  0.400000    0.00200000 198 t-inv T
 -0.300000 -0.100000 -0.400000    0.00200000 199 t-inv T
 -0.400000  0.300000 -0.400000    0.00200000 200 t-inv T
 -0.100000  0.400000 -0.400000    0.00200000 201 t-inv T
  0.300000  0.100000 -0.400000    0.00200000 202 t-inv T
  0.400000 -0.300000 -0.400000    0.00200000 203 t-inv T
  0.100000 -0.400000 -0.400000    0.00200000 204 t-inv T
  0.100000  0.300000  0.400000    0.00200000 205 t-inv T
 -0.300000  0.400000  0.400000    0.00200000 206 t-inv T
 -0.400000  0.100000  0.400000    0.00200000 207 t-inv T
 -0.100000 -0.300000  0.400000    0.00200000 208 t-inv T
  0.300000 -0.400000  0.400000    0.00200000 209 t-inv T
  0.400000 -0.100000  0.400000    0.00200000 210 t-inv T
 -0.400000 -0.100000 -0.400000    0.00200000 211 t-inv T
 -0.500000  0.400000 -0.400000    0.00200000 212 t-inv T
 -0.100000 -0.500000 -0.400000    0.00200000 213 t-inv T
  0.400000  0.100000 -0.400000    0.00200000 214 t-inv T
 -0.500000 -0.400000 -0.400000    0.00200000 215 t-inv T
  0.100000 -0.500000 -0.400000    0.00200000 216 t-inv T
  0.100000  0.400000  0.400000    0.00200000 217 t-inv T
 -0.400000 -0.500000  0.400000    0.00200000 218 t-inv T
 -0.500000  0.100000  0.400000    0.00200000 219 t-inv T
 -0.100000 -0.400000  0.400000    0.00200000 220 t-inv T
  0.400000 -0.500000  0.400000    0.00200000 221 t-inv T
 -0.500000 -0.100000  0.400000    0.00200000 222 t-inv T
 -0.200000 -0.200000 -0.400000    0.00200000 223 t-inv T
 -0.400000  0.200000 -0.400000    0.00200000 224 t-inv T
 -0.200000  0.400000 -0.400000    0.00200000 225 t-inv T
  0.200000  0.200000 -0.400000    0.00200000 226 t-inv T
  0.400000 -0.200000 -0.400000    0.00200000 227 t-inv T
  0.200000 -0.400000 -0.400000    0.00200000 228 t-inv T
 -0.300000 -0.200000 -0.400000    0.00200000 229 t-inv T
 -0.500000  0.300000 -0.400000    0.00200000 230 t-inv T
 -0.200000 -0.500000 -0.400000    0.00200000 231 t-inv T
  0.300000  0.200000 -0.400000    0.00200000 232 t-inv T
 -0.500000 -0.300000 -0.400000    0.00200000 233 t-inv T
  0.200000 -0.500000 -0.400000    0.00200000 234 t-inv T
  0.200000  0.300000  0.400000    0.00200000 235 t-inv T
 -0.300000 -0.500000  0.400000    0.00200000 236 t-inv T
 -0.500000  0.200000  0.400000    0.00200000 237 t-inv T
 -0.200000 -0.300000  0.400000    0.00200000 238 t-inv T
  0.300000 -0.500000  0.400000    0.00200000 239 t-inv T
 -0.500000 -0.200000  0.400000    0.00200000 240 t-inv T
 -0.400000 -0.200000 -0.400000    0.00200000 241 t-inv T
  0.400000  0.400000 -0.400000    0.00200000 242 t-inv T
 -0.200000 -0.400000 -0.400000    0.00200000 243 t-inv T
  0.400000  0.200000 -0.400000    0.00200000 244 t-inv T
 -0.400000 -0.400000 -0.400000    0.00200000 245 t-inv T
  0.200000  0.400000 -0.400000    0.00200000 246 t-inv T
 -0.300000 -0.300000 -0.400000    0.00200000 247 t-inv T
  0.400000  0.300000 -0.400000    0.00200000 248 t-inv T
 -0.300000 -0.400000 -0.400000    0.00200000 249 t-inv T
  0.300000  0.300000 -0.400000    0.00200000 250 t-inv T
 -0.400000 -0.300000 -0.400000    0.00200000 251 t-inv T
  0.300000  0.400000 -0.400000    0.00200000 252 t-inv T


--------------------------------------------------------------------------------------------------------




 Dimension of arrays:
   k-points           NKPTS =    252   k-points in BZ     NKDIM =    500   number of bands    NBANDS=     30
   number of dos      NEDOS =    301   number of ions     NIONS =      5
   non local maximal  LDIM  =      6   non local SUM 2l+1 LMDIM =     18
   total plane-waves  NPLWV =  45000
   max r-space proj   IRMAX =      1   max aug-charges    IRDMAX=  21892
   dimension x,y,z NGX =    30 NGY =   30 NGZ =   50
   dimension x,y,z NGXF=    60 NGYF=   60 NGZF=  100
   support grid    NGXF=    60 NGYF=   60 NGZF=  100
   ions per type =               1   2   2
   NGX,Y,Z   is equivalent  to a cutoff of  11.24, 11.24, 10.92 a.u.
   NGXF,Y,Z  is equivalent  to a cutoff of  22.48, 22.48, 21.83 a.u.

 SYSTEM =  unknown system                          
 POSCAR =  Ba1 Cd2 P2                              

 Startparameter for this run:
   NWRITE =      2    write-flag & timer
   PREC   = accura    normal or accurate (medium, high low for compatibility)
   ISTART =      0    job   : 0-new  1-cont  2-samecut
   ICHARG =      2    charge: 1-file 2-atom 10-const
   ISPIN  =      1    spin polarized calculation?
   LNONCOLLINEAR =      F non collinear calculations
   LSORBIT =      F    spin-orbit coupling
   INIWAV =      1    electr: 0-lowe 1-rand  2-diag
   LASPH  =      T    aspherical Exc in radial PAW
   METAGGA=      F    non-selfconsistent MetaGGA calc.

 Electronic Relaxation 1
   ENCUT  =  400.0 eV  29.40 Ry    5.42 a.u.   7.24  7.24 12.42*2*pi/ulx,y,z
   ENINI  =  400.0     initial cutoff
   ENAUG  =  456.1 eV  augmentation charge cutoff
   NELM   =    100;   NELMIN=  2; NELMDL= -5     # of ELM steps 
   EDIFF  = 0.1E-06   stopping-criterion for ELM
   LREAL  =      F    real-space projection
   NLSPLINE    = F    spline interpolate recip. space projectors
   LCOMPAT=      F    compatible to vasp.4.4
   GGA_COMPAT  = T    GGA compatible to vasp.4.4-vasp.4.6
   LMAXPAW     = -100 max onsite density
   LMAXMIX     =    4 max onsite mixed and CHGCAR
   VOSKOWN=      0    Vosko Wilk Nusair interpolation
   ROPT   =    0.00000   0.00000   0.00000
 Ionic relaxation
   EDIFFG = -.5E-02   stopping-criterion for IOM
   NSW    =    100    number of steps for IOM
   NBLOCK =      1;   KBLOCK =    100    inner block; outer block 
   IBRION =      2    ionic relax: 0-MD 1-quasi-New 2-CG
   NFREE  =      1    steps in history (QN), initial steepest desc. (CG)
   ISIF   =      3    stress and relaxation
   IWAVPR =     11    prediction:  0-non 1-charg 2-wave 3-comb
   ISYM   =      0    0-nonsym 1-usesym 2-fastsym
   LCORR  =      T    Harris-Foulkes like correction to forces

   POTIM  = 0.5000    time-step for ionic-motion
   TEIN   =    0.0    initial temperature
   TEBEG  =    0.0;   TEEND  =   0.0 temperature during run
   SMASS  =  -3.00    Nose mass-parameter (am)
   estimated Nose-frequenzy (Omega)   =  0.10E-29 period in steps = 0.13E+47 mass=  -0.450E-27a.u.
   SCALEE = 1.0000    scale energy and forces
   NPACO  =    256;   APACO  = 16.0  distance and # of slots for P.C.
   PSTRESS=    0.0 pullay stress

  Mass of Ions in am
   POMASS = 137.33112.41 30.97
  Ionic Valenz
   ZVAL   =  10.00 12.00  5.00
  Atomic Wigner-Seitz radii
   RWIGS  =  -1.00 -1.00 -1.00
  virtual crystal weights 
   VCA    =   1.00  1.00  1.00
   NELECT =      44.0000    total number of electrons
   NUPDOWN=      -1.0000    fix difference up-down

 DOS related values:
   EMIN   =  10.00;   EMAX   =-10.00  energy-range for DOS
   EFERMI =   0.00
   ISMEAR =    -5;   SIGMA  =   0.01  broadening in eV -4-tet -1-fermi 0-gaus

 Electronic relaxation 2 (details)
   IALGO  =     38    algorithm
   LDIAG  =      T    sub-space diagonalisation (order eigenvalues)
   LSUBROT=      F    optimize rotation matrix (better conditioning)
   TURBO    =      0    0=normal 1=particle mesh
   IRESTART =      0    0=no restart 2=restart with 2 vectors
   NREBOOT  =      0    no. of reboots
   NMIN     =      0    reboot dimension
   EREF     =   0.00    reference energy to select bands
   IMIX   =      1    mixing-type and parameters
     AMIX     =   0.40;   BMIX     =  1.00
     AMIX_MAG =   1.60;   BMIX_MAG =  1.00
     AMIN     =   0.10
     WC   =   100.;   INIMIX=   1;  MIXPRE=   1;  MAXMIX= -45

 Intra band minimization:
   WEIMIN = 0.0010     energy-eigenvalue tresh-hold
   EBREAK =  0.83E-09  absolut break condition
   DEPER  =   0.30     relativ break condition  

   TIME   =   0.40     timestep for ELM

  volume/ion in A,a.u.               =      25.97       175.24
  Fermi-wavevector in a.u.,A,eV,Ry     =   1.141359  2.156856 17.724317  1.302701
  Thomas-Fermi vector in A             =   2.278059
 
 Write flags
   LWAVE        =      T    write WAVECAR
   LDOWNSAMPLE  =      F    k-point downsampling of WAVECAR
   LCHARG       =      T    write CHGCAR
   LVTOT        =      F    write LOCPOT, total local potential
   LVHAR        =      T    write LOCPOT, Hartree potential only
   LELF         =      F    write electronic localiz. function (ELF)
   LORBIT       =     11    0 simple, 1 ext, 2 COOP (PROOUT), +10 PAW based schemes


 Dipole corrections
   LMONO  =      F    monopole corrections only (constant potential shift)
   LDIPOL =      F    correct potential (dipole corrections)
   IDIPOL =      0    1-x, 2-y, 3-z, 4-all directions 
   EPSILON=  1.0000000 bulk dielectric constant

 Exchange correlation treatment:
   GGA     =    PE    GGA type
   LEXCH   =     8    internal setting for exchange type
   VOSKOWN=      0    Vosko Wilk Nusair interpolation
   EXXOEP  =     0    0=HF, 1=EXX-LHF (local Hartree Fock) 2=EXX OEP
   LHFCALC =     T    Hartree Fock is set to
   LSYMGRAD=     F    symmetrize gradient (conserves proper symmetry)
   PRECFOCK=fast      Normal, Fast or Accurate (Low or Medium for compatibility)
   LRHFCALC=     F    long range Hartree Fock
   LRSCOR  =     F    long range correlation only (use DFT for short range part)
   LTHOMAS =     F    Thomas Fermi screening in HF
   LMODELHF=     F    short range full HF, long range fraction AEXX
   LFOCKACE=     T    use Adeptively-Compressed-Exchange operator
   ENCUT4O =  -1.0   cutoff for four orbital integrals eV
   LMAXFOCK=     4    L truncation for augmentation on plane wave grid
   LMAXFOCKAE=  -1    L truncation for all-electron charge restoration on plane wave grid
   NMAXFOCKAE=   1    number of basis functions for all-electron charge restoration
   LFOCKAEDFT=     F  apply the AE augmentation even for DFT
   NKREDX  =     1    reduce k-point grid by
   NKREDY  =     1    reduce k-point grid by
   NKREDZ  =     1    reduce k-point grid by
   SHIFTRED=     F    shift reduced grid of Gamma
   HFKIDENT=     F    idential grid for each k-point
   ODDONLY =     F    use only odd q-grid points
   EVENONLY=     F    use only even q-grid points
   HFALPHA =   -1.0000 decay constant for conv. correction
   MCALPHA =    0.0000 extent of test-charge in conv. correction in multipole expansion
   AEXX    =    0.2500 exact exchange contribution
   HFSCREEN=    0.2000 screening length (either q_TF or 0.3 A-1)
   HFSCREENC=   0.2000 screening length for correlation (either q_TF or 0.3 A-1)
   HFRCUT  =    0.0000 spherical cutoff for potential kernel
   ALDAX   =    0.7500 LDA exchange part
   AGGAX   =    0.7500 GGA exchange part
   ALDAC   =    1.0000 LDA correlation
   AGGAC   =    1.0000 GGA correlation
   ENCUTFOCK=  -1.0 apply spherical cutoff to Coloumb kernel
[...]
      7      -7.1913      2.00000
      8      -7.0898      2.00000
      9      -7.0541      2.00000
     10      -7.0068      2.00000
     11      -6.9949      2.00000
     12      -6.9288      2.00000
     13      -6.9194      2.00000
     14      -6.7081      2.00000
     15      -6.0681      2.00000
     16      -5.8391      2.00000
     17      -1.8574      2.00000
     18      -1.7466      2.00000
     19      -0.1948      2.00000
     20       0.4394      2.00000
     21       0.9339      2.00000
     22       1.4302      2.00000
     23       5.1316      0.00000
     24       6.2593      0.00000
     25       6.7172      0.00000
     26       7.0587      0.00000
     27       8.2128      0.00000
     28       8.4473      0.00000
     29       9.0776      0.00000
     30       9.7385      0.00000

 k-point   246 :      -0.2000   -0.4000    0.4000
  band No.  band energies     occupation 
      1     -26.7800      2.00000
      2     -11.4596      2.00000
      3     -11.1452      2.00000
      4     -11.0789      2.00000
      5      -8.5630      2.00000
      6      -8.4307      2.00000
      7      -7.1913      2.00000
      8      -7.0898      2.00000
      9      -7.0541      2.00000
     10      -7.0068      2.00000
     11      -6.9949      2.00000
     12      -6.9288      2.00000
     13      -6.9194      2.00000
     14      -6.7081      2.00000
     15      -6.0680      2.00000
     16      -5.8390      2.00000
     17      -1.8573      2.00000
     18      -1.7465      2.00000
     19      -0.1950      2.00000
     20       0.4393      2.00000
     21       0.9338      2.00000
     22       1.4303      2.00000
     23       5.1316      0.00000
     24       6.2595      0.00000
     25       6.7166      0.00000
     26       7.0581      0.00000
     27       8.2128      0.00000
     28       8.4477      0.00000
     29       9.0773      0.00000
     30       9.7384      0.00000

 k-point   247 :       0.3000    0.3000    0.4000
  band No.  band energies     occupation 
      1     -26.7788      2.00000
      2     -11.3857      2.00000
      3     -11.2492      2.00000
      4     -11.0707      2.00000
      5      -8.5119      2.00000
      6      -8.4638      2.00000
      7      -7.1897      2.00000
      8      -7.0854      2.00000
      9      -7.0654      2.00000
     10      -7.0042      2.00000
     11      -6.9787      2.00000
     12      -6.9300      2.00000
     13      -6.9102      2.00000
     14      -6.7285      2.00000
     15      -6.0231      2.00000
     16      -5.8401      2.00000
     17      -1.8024      2.00000
     18      -1.6925      2.00000
     19      -0.3992      2.00000
     20       0.5555      2.00000
     21       0.7825      2.00000
     22       1.1178      2.00000
     23       5.6071      0.00000
     24       5.9191      0.00000
     25       7.3931      0.00000
     26       7.7253      0.00000
     27       7.7864      0.00000
     28       8.0570      0.00000
     29       9.1865      0.00000
     30       9.6320      0.00000

 k-point   248 :      -0.4000   -0.3000    0.4000
  band No.  band energies     occupation 
      1     -26.7788      2.00000
      2     -11.3856      2.00000
      3     -11.2493      2.00000
      4     -11.0707      2.00000
      5      -8.5118      2.00000
      6      -8.4638      2.00000
      7      -7.1897      2.00000
      8      -7.0854      2.00000
      9      -7.0654      2.00000
     10      -7.0042      2.00000
     11      -6.9787      2.00000
     12      -6.9300      2.00000
     13      -6.9101      2.00000
     14      -6.7285      2.00000
     15      -6.0232      2.00000
     16      -5.8402      2.00000
     17      -1.8024      2.00000
     18      -1.6925      2.00000
     19      -0.3991      2.00000
     20       0.5555      2.00000
     21       0.7826      2.00000
     22       1.1177      2.00000
     23       5.6073      0.00000
     24       5.9190      0.00000
     25       7.3935      0.00000
     26       7.7252      0.00000
     27       7.7868      0.00000
     28       8.0571      0.00000
     29       9.1863      0.00000
     30       9.6318      0.00000

 k-point   249 :       0.3000    0.4000    0.4000
  band No.  band energies     occupation 
      1     -26.7788      2.00000
      2     -11.3856      2.00000
      3     -11.2493      2.00000
      4     -11.0707      2.00000
      5      -8.5118      2.00000
      6      -8.4638      2.00000
      7      -7.1897      2.00000
      8      -7.0854      2.00000
      9      -7.0654      2.00000
     10      -7.0042      2.00000
     11      -6.9787      2.00000
     12      -6.9300      2.00000
     13      -6.9102      2.00000
     14      -6.7285      2.00000
     15      -6.0232      2.00000
     16      -5.8402      2.00000
     17      -1.8024      2.00000
     18      -1.6925      2.00000
     19      -0.3991      2.00000
     20       0.5555      2.00000
     21       0.7826      2.00000
     22       1.1176      2.00000
     23       5.6073      0.00000
     24       5.9190      0.00000
     25       7.3935      0.00000
     26       7.7252      0.00000
     27       7.7868      0.00000
     28       8.0571      0.00000
     29       9.1863      0.00000
     30       9.6318      0.00000

 k-point   250 :      -0.3000   -0.3000    0.4000
  band No.  band energies     occupation 
      1     -26.7788      2.00000
      2     -11.3856      2.00000
      3     -11.2492      2.00000
      4     -11.0707      2.00000
      5      -8.5118      2.00000
      6      -8.4638      2.00000
      7      -7.1897      2.00000
      8      -7.0854      2.00000
      9      -7.0654      2.00000
     10      -7.0042      2.00000
     11      -6.9787      2.00000
     12      -6.9300      2.00000
     13      -6.9101      2.00000
     14      -6.7285      2.00000
     15      -6.0231      2.00000
     16      -5.8401      2.00000
     17      -1.8024      2.00000
     18      -1.6925      2.00000
     19      -0.3992      2.00000
     20       0.5555      2.00000
     21       0.7825      2.00000
     22       1.1178      2.00000
     23       5.6071      0.00000
     24       5.9191      0.00000
     25       7.3931      0.00000
     26       7.7253      0.00000
     27       7.7864      0.00000
     28       8.0570      0.00000
     29       9.1865      0.00000
     30       9.6320      0.00000

 k-point   251 :       0.4000    0.3000    0.4000
  band No.  band energies     occupation 
      1     -26.7788      2.00000
      2     -11.3856      2.00000
      3     -11.2493      2.00000
      4     -11.0707      2.00000
      5      -8.5118      2.00000
      6      -8.4638      2.00000
      7      -7.1897      2.00000
      8      -7.0854      2.00000
      9      -7.0654      2.00000
     10      -7.0042      2.00000
     11      -6.9787      2.00000
     12      -6.9300      2.00000
     13      -6.9102      2.00000
     14      -6.7285      2.00000
     15      -6.0232      2.00000
     16      -5.8402      2.00000
     17      -1.8025      2.00000
     18      -1.6925      2.00000
     19      -0.3991      2.00000
     20       0.5555      2.00000
     21       0.7826      2.00000
     22       1.1177      2.00000
     23       5.6072      0.00000
     24       5.9190      0.00000
     25       7.3935      0.00000
     26       7.7255      0.00000
     27       7.7864      0.00000
     28       8.0571      0.00000
     29       9.1865      0.00000
     30       9.6318      0.00000

 k-point   252 :      -0.3000   -0.4000    0.4000
  band No.  band energies     occupation 
      1     -26.7788      2.00000
      2     -11.3856      2.00000
      3     -11.2493      2.00000
      4     -11.0707      2.00000
      5      -8.5118      2.00000
      6      -8.4638      2.00000
      7      -7.1897      2.00000
      8      -7.0854      2.00000
      9      -7.0654      2.00000
     10      -7.0042      2.00000
     11      -6.9787      2.00000
     12      -6.9300      2.00000
     13      -6.9101      2.00000
     14      -6.7285      2.00000
     15      -6.0232      2.00000
     16      -5.8402      2.00000
     17      -1.8024      2.00000
     18      -1.6925      2.00000
     19      -0.3991      2.00000
     20       0.5556      2.00000
     21       0.7826      2.00000
     22       1.1177      2.00000
     23       5.6072      0.00000
     24       5.9190      0.00000
     25       7.3935      0.00000
     26       7.7255      0.00000
     27       7.7864      0.00000
     28       8.0571      0.00000
     29       9.1865      0.00000
     30       9.6318      0.00000


--------------------------------------------------------------------------------------------------------


 soft charge-density along one line, spin component            1
         0         1         2         3         4         5         6         7         8         9
 total charge-density along one line
 
 pseudopotential strength for first ion, spin component:            1
  1.062  -4.934   0.000   0.000   0.000   0.000   0.000   0.000
 -4.934   0.612  -0.000  -0.000  -0.000   0.000   0.000   0.000
  0.000  -0.000  -7.814  -0.000   0.000   4.271  -0.000   0.000
  0.000  -0.000  -0.000  -7.816   0.000  -0.000   4.269   0.000
  0.000  -0.000   0.000   0.000  -7.814   0.000   0.000   4.271
  0.000   0.000   4.271  -0.000   0.000   7.188   0.000  -0.000
  0.000   0.000  -0.000   4.269   0.000   0.000   7.190  -0.000
  0.000   0.000   0.000   0.000   4.271  -0.000  -0.000   7.188
  0.000  -0.000   0.000  -0.000   0.000   0.000   0.000   0.000
 -0.000   0.000   0.000   0.000  -0.000   0.000   0.000   0.000
 -0.001   0.001  -0.000   0.000  -0.000  -0.000   0.000  -0.000
  0.000  -0.000  -0.000   0.000   0.000   0.000   0.000   0.000
 -0.000   0.000  -0.000  -0.000   0.000  -0.000   0.000   0.000
  0.000  -0.000   0.000  -0.000   0.000   0.000   0.000   0.000
 -0.000   0.000   0.000   0.000  -0.000   0.000   0.000   0.000
 -0.001   0.001  -0.000   0.000  -0.000  -0.000   0.000  -0.000
  0.000  -0.000  -0.000   0.000   0.000   0.000   0.000   0.000
 -0.000   0.000  -0.000  -0.000   0.000  -0.000   0.000   0.000
 total augmentation occupancy for first ion, spin component:            1
  2.007   0.022  -0.000  -0.000  -0.000  -0.000  -0.000  -0.000   0.000  -0.000  -0.008   0.000  -0.000  -0.000  -0.000   0.003
  0.022   0.458  -0.000  -0.000  -0.000   0.000   0.000   0.000   0.000   0.000   0.005  -0.000  -0.000  -0.000  -0.000  -0.008
 -0.000  -0.000   2.008   0.000  -0.000  -0.006  -0.000   0.000  -0.000  -0.000   0.000   0.000   0.000  -0.000  -0.000  -0.000
 -0.000  -0.000   0.000   2.010  -0.000  -0.000  -0.009   0.000   0.000  -0.000   0.000  -0.000   0.000   0.000  -0.000  -0.000
 -0.000  -0.000  -0.000  -0.000   2.008   0.000   0.000  -0.006   0.000   0.000   0.000  -0.000  -0.000  -0.000  -0.000  -0.000
 -0.000   0.000  -0.006  -0.000   0.000   0.009   0.000   0.000   0.000   0.000   0.000  -0.000  -0.000  -0.000  -0.000  -0.000
 -0.000   0.000  -0.000  -0.009   0.000   0.000   0.009  -0.000  -0.000   0.000   0.000   0.000  -0.000   0.000  -0.000  -0.000
 -0.000   0.000   0.000   0.000  -0.006   0.000  -0.000   0.009  -0.000  -0.000   0.000   0.000   0.000   0.000   0.000  -0.000
  0.000   0.000  -0.000   0.000   0.000   0.000  -0.000  -0.000   1.542  -0.000   0.000  -0.859   0.000  -0.764   0.000  -0.000
 -0.000   0.000  -0.000  -0.000   0.000   0.000   0.000  -0.000  -0.000   2.365   0.000   0.000  -0.859   0.000  -1.198  -0.000
 -0.008   0.005   0.000   0.000   0.000   0.000   0.000   0.000   0.000   0.000   0.771  -0.000  -0.000  -0.000  -0.000  -0.382
  0.000  -0.000   0.000  -0.000  -0.000  -0.000   0.000   0.000  -0.859   0.000  -0.000   2.365  -0.000   0.429  -0.000   0.000
 -0.000  -0.000   0.000   0.000  -0.000  -0.000  -0.000   0.000   0.000  -0.859  -0.000  -0.000   1.542  -0.000   0.430   0.000
 -0.000  -0.000  -0.000   0.000  -0.000  -0.000   0.000   0.000  -0.764   0.000  -0.000   0.429  -0.000   0.380  -0.000   0.000
 -0.000  -0.000  -0.000  -0.000  -0.000  -0.000  -0.000   0.000   0.000  -1.198  -0.000  -0.000   0.430  -0.000   0.609   0.000
  0.003  -0.008  -0.000  -0.000  -0.000  -0.000  -0.000  -0.000  -0.000  -0.000  -0.382   0.000   0.000   0.000   0.000   0.190
  0.000   0.000   0.000   0.000  -0.000   0.000  -0.000  -0.000   0.430  -0.000   0.000  -1.198   0.000  -0.216   0.000  -0.000
  0.000   0.000  -0.000  -0.000  -0.000   0.000   0.000  -0.000  -0.000   0.429   0.000   0.000  -0.764   0.000  -0.216  -0.000


------------------------ aborting loop because EDIFF is reached ----------------------------------------


 


 total charge     
 
# of ion       s       p       d       tot
------------------------------------------
    1        2.011   5.610   0.300   7.920
    2        0.438   0.330   9.560  10.328
    3        0.438   0.330   9.560  10.328
    4        1.027   1.481   0.000   2.507
    5        1.027   1.481   0.000   2.507
--------------------------------------------------
tot          4.940   9.232  19.419  33.591
 
    CHARGE:  cpu time    0.2618: real time    0.2626
    FORLOC:  cpu time    0.0006: real time    0.0006
    FORHF :  cpu time 1015.4866: real time 1018.5445
    FORNL :  cpu time    0.5219: real time    0.5230
    STRESS:  cpu time    7.7913: real time    7.8163
    FORCOR:  cpu time    0.0403: real time    0.0405
    FORHAR:  cpu time    0.0018: real time    0.0018
    MIXING:  cpu time    0.0003: real time    0.0003
    OFIELD:  cpu time    0.0000: real time    0.0000

  FORCE on cell =-STRESS in cart. coord.  units (eV):
  Direction    XX          YY          ZZ          XY          YZ          ZX
  --------------------------------------------------------------------------------------
  Alpha Z   230.32900   230.32900   230.32900
  Ewald    -887.29138  -887.28754 -1017.08237     0.00333    -0.00540     0.00935
  Hartree   386.26418   386.26630   229.44729     0.00185    -0.00390     0.00675
  E(xc)    -147.37511  -147.37513  -147.37818    -0.00002     0.00001    -0.00001
  Local     -13.45670   -13.46218   272.68665    -0.00476     0.00881    -0.01524
  n-local   -12.31636   -12.31534   -12.28012     0.00089     0.00016    -0.00028
  augment    21.90914    21.90897    21.48379    -0.00014     0.00008    -0.00014
  Kinetic   540.37198   540.37425   541.28020     0.00197     0.00012    -0.00020
  Fock     -118.43612  -118.43999  -118.49292    -0.00335     0.00001    -0.00002
  -------------------------------------------------------------------------------------
  Total      -0.00139    -0.00166    -0.00665    -0.00024    -0.00012     0.00021
  in kB      -0.01725    -0.02065    -0.08276    -0.00293    -0.00150     0.00258
  external pressure =       -0.04 kB  Pullay stress =        0.00 kB


 VOLUME and BASIS-vectors are now :
 -----------------------------------------------------------------------------
  energy-cutoff  :      400.00
  volume of cell :      128.67
      direct lattice vectors                 reciprocal lattice vectors
     4.422926082 -0.000134230 -0.000039174     0.226098629  0.130547256  0.000001337
    -2.211579287  3.830299148  0.000039195     0.000007923  0.261080789 -0.000001338
    -0.000067378  0.000038935  7.595315258     0.000001166 -0.000000674  0.131660104

  length of vectors
     4.422926084  4.422926012  7.595315258     0.261080785  0.261080789  0.131660104


 FORCES acting on ions
    electron-ion (+dipol)            ewald-force                    non-local-force                 convergence-correction
 -----------------------------------------------------------------------------------------------
   0.652E-07 0.528E-07 0.181E-05   -.682E-07 -.624E-07 -.190E-05   -.130E-07 -.933E-08 -.481E-07   0.178E-08 0.380E-08 0.328E-07
   0.138E-01 -.795E-02 0.151E+03   -.131E-01 0.754E-02 -.152E+03   -.648E-03 0.374E-03 0.111E+01   -.163E-04 0.945E-05 -.227E-03
   -.138E-01 0.795E-02 -.151E+03   0.131E-01 -.754E-02 0.152E+03   0.648E-03 -.374E-03 -.111E+01   0.163E-04 -.939E-05 0.227E-03
   0.481E-02 -.278E-02 -.112E+03   -.484E-02 0.279E-02 0.116E+03   0.824E-04 -.475E-04 -.382E+01   0.541E-06 -.331E-06 -.443E-04
   -.481E-02 0.278E-02 0.112E+03   0.484E-02 -.279E-02 -.116E+03   -.824E-04 0.475E-04 0.382E+01   -.535E-06 0.324E-06 0.443E-04
 -----------------------------------------------------------------------------------------------
   -.127E-07 -.125E-06 0.117E-06   -.260E-14 0.112E-13 0.142E-13   -.144E-07 0.161E-07 -.560E-07   0.173E-07 0.596E-07 -.837E-07
 
 
 POSITION                                       TOTAL-FORCE (eV/Angst)
 -----------------------------------------------------------------------------------
      0.00000      0.00000      0.00000        -0.000000     -0.000000     -0.000000
      2.21137      1.27671      2.80664         0.000032     -0.000018      0.000194
     -0.00010      2.55350      4.78867        -0.000032      0.000018     -0.000194
      2.21136      1.27671      5.56542         0.000064     -0.000037     -0.001306
     -0.00008      2.55349      2.02989        -0.000064      0.000037      0.001306
 -----------------------------------------------------------------------------------
    total drift:                               -0.000000     -0.000000     -0.000000


--------------------------------------------------------------------------------------------------------



  FREE ENERGIE OF THE ION-ELECTRON SYSTEM (eV)
  ---------------------------------------------------
  free  energy   TOTEN  =       -19.94643821 eV

  energy  without entropy=      -19.94643821  energy(sigma->0) =      -19.94643821
 
 d Force = 0.1161817E-06[-0.152E-05, 0.176E-05]  d Energy = 0.5596569E-05-0.548E-05
 d Force = 0.1307129E+00[ 0.131E+00, 0.131E+00]  d Ewald  = 0.2241713E+00-0.935E-01


--------------------------------------------------------------------------------------------------------


    POTLOK:  cpu time    0.5028: real time    0.5038


--------------------------------------------------------------------------------------------------------




--------------------------------------------------------------------------------------------------------


  
 reached required accuracy - stopping structural energy minimisation
 writing wavefunctions
     LOOP+:  cpu time 3104.2931: real time 3114.9030
    4ORBIT:  cpu time    0.0000: real time    0.0000
 


 total charge     
 
# of ion       s       p       d       tot
------------------------------------------
    1        2.011   5.610   0.300   7.920
    2        0.438   0.330   9.560  10.328
    3        0.438   0.330   9.560  10.328
    4        1.027   1.481   0.000   2.507
    5        1.027   1.481   0.000   2.507
--------------------------------------------------
tot          4.940   9.232  19.419  33.591
 
 BZINTS: Fermi energy:    2.712168;   44.000000 electrons
         Band energy:-0.288191E+03;  BLOECHL correction:   -0.000000

 total amount of memory used by VASP MPI-rank0   341026. kBytes
=======================================================================

   base      :      30000. kBytes
   nonl-proj :     259286. kBytes
   fftplans  :       1417. kBytes
   grid      :       4152. kBytes
   one-center:         77. kBytes
   HF        :        194. kBytes
   nonlr-proj:       7032. kBytes
   wavefun   :      29635. kBytes
   fock_wrk  :       9233. kBytes
 
  
  
 General timing and accounting informations for this job:
 ========================================================
  
                  Total CPU time used (sec):    34827.773
                            User time (sec):    34821.968
                          System time (sec):        5.807
                         Elapsed time (sec):    34955.358
  
                   Maximum memory used (kb):     1770792.
                   Average memory used (kb):           0.
  
                          Minor page faults:      1946998
                          Major page faults:          203
                 Voluntary context switches:       796649
