unknown system                          
            1
     4.437201    0.000000    0.000000
    -2.218600    3.842729    0.000000
     0.000000    0.000000    7.614853
   Ba   Cd   P 
     1     2     2
Direct configuration=     1
   0.00000000  0.00000000  0.00000000
   0.66666667  0.33333333  0.36968804
   0.33333333  0.66666667  0.63031196
   0.66666667  0.33333333  0.73157145
   0.33333333  0.66666667  0.26842855
unknown system                          
            1
     4.419032   -0.000099    0.000000
    -2.209602    3.826945   -0.000000
     0.000000   -0.000000    7.592399
   Ba   Cd   P 
     1     2     2
Direct configuration=     2
  -0.00000000 -0.00000000 -0.00000000
   0.66666670  0.33333330  0.36963724
   0.33333330  0.66666670  0.63036276
   0.66666668  0.33333332  0.73186757
   0.33333332  0.66666668  0.26813243
unknown system                          
            1
     4.422795   -0.000079    0.000000
    -2.211466    3.830213   -0.000000
     0.000000   -0.000000    7.597049
   Ba   Cd   P 
     1     2     2
Direct configuration=     3
  -0.00000000 -0.00000000 -0.00000000
   0.66666670  0.33333330  0.36964779
   0.33333330  0.66666670  0.63035221
   0.66666667  0.33333332  0.73180606
   0.33333333  0.66666668  0.26819394
unknown system                          
            1
     4.421944   -0.000122   -0.000009
    -2.211078    3.829454    0.000009
    -0.000015    0.000009    7.599787
   Ba   Cd   P 
     1     2     2
Direct configuration=     4
  -0.00000000 -0.00000000 -0.00000000
   0.66666599  0.33333401  0.36958829
   0.33333401  0.66666599  0.63041171
   0.66666624  0.33333375  0.73215566
   0.33333376  0.66666625  0.26784434
unknown system                          
            1
     4.420742   -0.000184   -0.000022
    -2.210530    3.828383    0.000022
    -0.000038    0.000022    7.603652
   Ba   Cd   P 
     1     2     2
Direct configuration=     5
  -0.00000000 -0.00000000 -0.00000000
   0.66666500  0.33333500  0.36950432
   0.33333500  0.66666500  0.63049568
   0.66666564  0.33333436  0.73264904
   0.33333436  0.66666564  0.26735096
unknown system                          
            1
     4.420957   -0.000173   -0.000020
    -2.210628    3.828575    0.000020
    -0.000034    0.000019    7.602959
   Ba   Cd   P 
     1     2     2
Direct configuration=     6
  -0.00000000 -0.00000000 -0.00000000
   0.66666518  0.33333482  0.36951937
   0.33333482  0.66666518  0.63048063
   0.66666574  0.33333425  0.73256061
   0.33333426  0.66666575  0.26743939
unknown system                          
            1
     4.422108   -0.000150   -0.000031
    -2.211184    3.829582    0.000031
    -0.000053    0.000031    7.598492
   Ba   Cd   P 
     1     2     2
Direct configuration=     7
   0.00000000  0.00000000  0.00000000
   0.66666390  0.33333611  0.36952245
   0.33333610  0.66666389  0.63047755
   0.66666514  0.33333486  0.73266889
   0.33333486  0.66666514  0.26733111
unknown system                          
            1
     4.422926   -0.000134   -0.000039
    -2.211579    3.830299    0.000039
    -0.000067    0.000039    7.595315
   Ba   Cd   P 
     1     2     2
Direct configuration=     8
   0.00000000  0.00000000  0.00000000
   0.66666298  0.33333703  0.36952464
   0.33333702  0.66666297  0.63047536
   0.66666471  0.33333529  0.73274595
   0.33333529  0.66666471  0.26725404
